/*--------------------------------*- C++ -*----------------------------------*\
| =========                 |                                                 |
| \\      /  F ield         | OpenFOAM: The Open Source CFD Toolbox           |
|  \\    /   O peration     | Version:  2406                                  |
|   \\  /    A nd           | Website:  www.openfoam.com                      |
|    \\/     M anipulation  |                                                 |
\*---------------------------------------------------------------------------*/
FoamFile
{
    version     2.0;
    format      ascii;
    arch        "LSB;label=32;scalar=64";
    class       volVectorField;
    location    "2.16";
    object      U;
}
// * * * * * * * * * * * * * * * * * * * * * * * * * * * * * * * * * * * * * //

dimensions      [0 1 -1 0 0 0 0];

internalField   nonuniform List<vector> 
15536
(
(0.07341523 7.591041 -1.000595e-21)
(-0.1046683 6.452191 -8.443524e-19)
(-0.1135478 3.668031 -1.581282e-18)
(0.1513676 -0.5630409 -1.463841e-18)
(0.2299521 -1.798935 -2.154404e-20)
(-0.08909464 0.06809091 1.110663e-20)
(0.1908154 -0.4497162 2.480005e-20)
(0.7966669 -2.316248 -2.421261e-20)
(0.4533068 -1.645093 6.013724e-18)
(-0.4843478 1.12087 6.005774e-18)
(0.784923 -1.454559 0)
(1.872945 -3.523204 0)
(1.700047 -3.104873 -3.351341e-20)
(1.019115 -1.814514 8.038141e-18)
(0.2836717 -0.4792657 3.850504e-18)
(-0.07440256 0.09172629 -8.107768e-18)
(0.1275563 -0.1804103 4.584465e-18)
(-0.2057814 0.1919931 4.787154e-20)
(-1.607462 1.683928 -1.085083e-19)
(-3.188791 3.190746 6.045006e-20)
(-4.581303 4.291629 0)
(-5.635042 4.941401 1.286962e-17)
(-6.084967 5.051181 0)
(-4.377149 3.683452 1.069617e-17)
(1.928559 -0.8863591 -6.353826e-20)
(5.866698 -3.669974 -1.899282e-20)
(2.253094 -1.483491 1.916606e-20)
(-1.398977 0.5415772 -6.536781e-18)
(-2.805115 1.236909 -8.288375e-18)
(-3.591246 1.458543 0)
(-5.267513 1.889536 -5.059914e-20)
(-7.781855 2.485722 -7.112582e-18)
(-10.29589 3.140998 9.853753e-18)
(-6.787848 2.137334 0)
(0.3089391 0.1213794 -7.717471e-18)
(1.879214 -0.5142977 -3.156791e-20)
(-0.9011592 -0.1159681 4.173454e-18)
(4.924468 -0.1113178 -1.900538e-18)
(10.08576 0.1336892 1.825325e-21)
(12.78769 0.6120454 -4.604224e-19)
(14.18221 1.204169 1.859237e-18)
(14.94783 1.880902 -2.921858e-20)
(15.39188 2.573923 2.899739e-20)
(15.62433 3.260616 0)
(15.70267 3.934245 -7.176683e-18)
(15.64301 4.580951 -7.086667e-18)
(15.44115 5.19225 0)
(15.17193 5.776945 -1.339487e-17)
(14.83581 6.330163 1.301586e-17)
(14.46051 6.856817 1.253655e-17)
(14.03394 7.341814 4.558973e-20)
(13.55005 7.781255 -1.136378e-17)
(13.01657 8.169994 0)
(12.44242 8.510117 0)
(11.83698 8.798154 9.23536e-18)
(11.19784 9.025979 8.50516e-18)
(10.54387 9.205334 5.711879e-20)
(9.881309 9.334399 6.815852e-18)
(9.19637 9.393914 1.210921e-17)
(8.502262 9.392856 5.229084e-18)
(7.807148 9.334488 4.346444e-18)
(7.12466 9.228438 -3.100156e-20)
(6.451278 9.064569 0)
(5.784473 8.836028 1.798813e-18)
(5.138246 8.559991 0)
(4.508194 8.222494 -7.312933e-20)
(3.902497 7.830358 -2.816705e-20)
(3.332159 7.394288 -3.021232e-21)
(2.79647 6.912017 7.537558e-21)
(2.299515 6.387428 -3.053418e-18)
(1.847184 5.829409 -1.581454e-20)
(1.440136 5.235866 2.214517e-18)
(1.079994 4.609743 2.503338e-18)
(0.7721261 3.967933 0)
(0.5158375 3.31468 0)
(0.3135066 2.647976 3.198093e-18)
(0.1625912 1.976592 -4.661255e-22)
(0.06598047 1.304354 8.905574e-19)
(0.02667404 0.5865821 1.662383e-21)
(0.0386898 -0.2013797 -7.153766e-21)
(0.09860344 -0.9736646 -1.788147e-18)
(0.2145749 -1.699372 0)
(0.3853742 -2.396354 3.309018e-18)
(0.6081904 -3.070602 0)
(0.8818066 -3.720299 -2.896133e-18)
(1.20376 -4.341798 2.623705e-18)
(1.573552 -4.933816 1.96562e-20)
(1.987619 -5.494402 4.18829e-18)
(2.442343 -6.012982 1.265436e-20)
(2.933747 -6.487491 -2.93169e-18)
(3.459179 -6.920253 -2.234896e-18)
(4.015785 -7.305263 1.426988e-20)
(4.6013 -7.644222 -7.472315e-19)
(5.207972 -7.931782 -1.732452e-20)
(5.828486 -8.164948 9.09179e-21)
(6.452556 -8.331874 5.93626e-21)
(7.084994 -8.44594 -2.290613e-18)
(7.721404 -8.507168 0)
(8.353383 -8.508539 7.469228e-18)
(8.982603 -8.460032 4.400844e-18)
(9.590005 -8.348586 8.769832e-20)
(10.17167 -8.17684 -5.849666e-18)
(10.72321 -7.947934 0)
(11.24289 -7.666182 0)
(11.72905 -7.339457 0)
(12.17247 -6.96629 0)
(12.56288 -6.548298 8.522567e-18)
(12.89473 -6.088347 8.982356e-18)
(13.17237 -5.595968 2.851939e-20)
(13.35462 -5.064071 -9.555939e-18)
(13.41761 -4.491765 -4.839903e-18)
(13.34086 -3.884269 -4.946908e-18)
(13.05299 -3.239076 3.853166e-20)
(12.43442 -2.569902 4.88777e-18)
(11.21758 -1.899552 2.44943e-18)
(8.696849 -1.182421 -1.89189e-20)
(3.994233 -0.4155007 -4.523037e-21)
(-0.2344106 0.02131726 3.086006e-19)
(-2.811078 -0.3526284 -6.917017e-19)
(-6.764201 -0.8608095 -1.761368e-20)
(-7.790683 -0.9615987 1.191609e-20)
(-5.477712 -0.6590118 1.950043e-18)
(-2.658637 -0.2603455 1.312042e-20)
(1.443021 0.6050369 0)
(6.776425 2.019667 -3.642728e-19)
(2.915212 0.6011089 -1.98905e-18)
(-6.506181 -2.961023 -1.576051e-20)
(-9.698229 -4.2213 1.206356e-17)
(-7.683828 -3.503525 -8.150695e-18)
(-5.064807 -2.48874 0)
(-2.733643 -1.431909 0)
(-0.7446597 -0.347213 -9.863181e-19)
(1.34547 0.9515696 0)
(2.409921 1.72229 6.60868e-23)
(2.388399 1.858199 -3.556925e-20)
(2.030036 1.668861 -2.321093e-19)
(1.048646 0.8714965 3.75514e-21)
(-0.6645492 -0.7656425 -1.222925e-18)
(-0.902292 -1.014999 -1.558606e-20)
(-0.4566322 -0.484131 2.504373e-18)
(0.1798785 0.3059668 1.401258e-18)
(0.8279127 1.210465 1.657151e-18)
(1.31546 2.011575 1.923215e-18)
(1.646149 2.709427 0)
(1.902552 3.376746 -1.405581e-20)
(1.871194 3.575161 -2.592365e-18)
(1.472893 3.119562 0)
(1.133167 2.848234 3.202262e-18)
(1.080787 3.173367 -2.704125e-20)
(1.168705 3.857835 1.391896e-20)
(1.256742 4.675217 2.111279e-18)
(1.28186 5.500707 4.717449e-21)
(1.224549 6.260721 0)
(1.084776 6.903894 1.483308e-18)
(0.8738482 7.395669 1.212398e-20)
(0.6156746 7.71409 3.392262e-21)
(0.3335129 7.868639 -4.638258e-21)
(-0.2500312 8.843762 -3.588305e-19)
(-0.4406228 8.859079 6.629242e-19)
(-0.4178676 7.857396 0)
(-0.1040352 3.736727 1.111012e-18)
(0.1307085 -0.4692643 0)
(0.213606 -1.348725 4.208966e-18)
(0.6113343 -1.690151 1.976518e-20)
(1.077659 -3.117408 -1.950535e-20)
(0.5768681 -2.441297 -4.756146e-18)
(0.3572593 -0.8385069 -4.796837e-18)
(1.73809 -3.165929 0)
(2.261058 -4.337247 3.131836e-20)
(1.580503 -3.16824 -4.337592e-21)
(0.9230638 -1.956317 -3.236907e-18)
(0.1845583 -0.5349484 -6.362229e-18)
(-0.2996472 0.3896778 3.340417e-18)
(0.4784718 -0.5991437 -3.673764e-18)
(0.02192122 -0.3221081 -3.070188e-20)
(-2.044209 1.763596 0)
(-3.793236 3.479859 0)
(-5.251076 4.609683 0)
(-6.308663 5.234703 1.039507e-17)
(-6.657597 5.296018 7.535264e-20)
(-6.254532 5.304248 -7.036301e-20)
(0.003439183 1.06497 2.025428e-20)
(6.5251 -4.138789 -2.34333e-20)
(3.19513 -2.401561 0)
(0.8337356 -0.8209815 0)
(0.2787992 -0.2733118 1.41002e-17)
(0.2000028 -0.2784271 6.847166e-20)
(-0.9124164 -0.04543761 -6.537294e-20)
(-3.166056 0.522567 6.282599e-18)
(-5.062072 1.387275 8.844106e-18)
(-6.91382 2.282972 -5.208923e-20)
(-1.107671 0.7311916 -5.762346e-18)
(6.791164 -0.8714359 2.778702e-18)
(11.26766 -0.7546635 1.18219e-21)
(15.9677 -0.508998 1.2357e-18)
(18.83474 -0.2733862 0)
(19.4349 0.1518688 3.387364e-19)
(19.594 0.7531374 2.796723e-18)
(19.57815 1.457997 2.874491e-18)
(19.46159 2.174575 2.880058e-18)
(19.26332 2.897494 -8.901707e-20)
(19.00827 3.624769 5.769523e-18)
(18.70253 4.339733 -4.376997e-20)
(18.36068 5.039372 0)
(17.94874 5.702026 1.06766e-17)
(17.48112 6.33388 0)
(16.97255 6.932444 -7.54732e-20)
(16.4156 7.484431 7.569937e-20)
(15.8064 7.986868 9.072147e-18)
(15.15206 8.43332 -6.398249e-20)
(14.45939 8.824115 7.986944e-18)
(13.73652 9.155187 -7.427787e-18)
(12.98661 9.424125 0)
(12.2202 9.64017 4.522212e-20)
(11.44409 9.798652 -5.58987e-18)
(10.65335 9.886022 -9.656678e-18)
(9.85254 9.904367 0)
(9.054411 9.864619 -3.488464e-18)
(8.268054 9.768229 -1.894361e-20)
(7.49387 9.607387 2.085606e-18)
(6.73275 9.381316 8.216176e-21)
(5.991644 9.095985 -8.314048e-21)
(5.274541 8.748167 5.932877e-20)
(4.584442 8.342015 6.126757e-19)
(3.932471 7.882949 0)
(3.31969 7.376673 0)
(2.750803 6.826593 -2.139482e-20)
(2.230013 6.234678 0)
(1.760483 5.603381 0)
(1.343923 4.937906 0)
(0.9849328 4.250737 -2.28918e-18)
(0.6824694 3.551449 1.853053e-20)
(0.4445294 2.835524 1.118369e-20)
(0.2626305 2.113519 -5.482722e-21)
(0.1439529 1.386466 -7.311217e-19)
(0.09817123 0.611698 3.029877e-21)
(0.1133074 -0.2300234 -7.558449e-19)
(0.1804397 -1.056869 1.457813e-18)
(0.3180401 -1.836175 1.117322e-20)
(0.5199191 -2.583913 -2.684062e-18)
(0.7808285 -3.307408 -3.993603e-20)
(1.100128 -4.005067 2.400561e-18)
(1.473803 -4.669868 -2.181051e-18)
(1.902695 -5.301202 0)
(2.379178 -5.898565 -6.836856e-18)
(2.901265 -6.447 -2.08062e-20)
(3.466353 -6.948706 2.377754e-18)
(4.068717 -7.407825 1.820522e-18)
(4.705699 -7.812039 0)
(5.375314 -8.163059 0)
(6.069658 -8.464198 0)
(6.779979 -8.701015 6.907788e-21)
(7.50138 -8.86984 -6.863962e-21)
(8.233256 -8.980525 1.773364e-18)
(8.97017 -9.031646 4.768253e-21)
(9.707996 -9.020059 -3.019059e-18)
(10.44079 -8.950401 -6.611512e-20)
(11.15835 -8.818229 8.221988e-18)
(11.85262 -8.621433 4.634873e-18)
(12.51892 -8.363112 -3.795958e-20)
(13.15905 -8.049443 5.503847e-18)
(13.76797 -7.685113 4.509434e-20)
(14.33755 -7.266669 -5.140129e-20)
(14.85959 -6.799737 5.122626e-20)
(15.33089 -6.288138 5.605248e-20)
(15.74508 -5.735676 7.358581e-18)
(16.11758 -5.158335 -5.773265e-20)
(16.43567 -4.558005 0)
(16.6942 -3.941678 0)
(16.89421 -3.324976 0)
(17.00306 -2.716657 0)
(16.93485 -2.182891 1.356492e-20)
(16.3597 -1.762229 -1.337516e-20)
(13.57182 -1.27549 7.916077e-19)
(7.732623 -0.6348926 3.349722e-21)
(-2.358762 -0.3973571 0)
(-5.256354 -0.5881952 -1.383095e-18)
(-1.603583 -0.01169719 2.587628e-18)
(-0.6411165 0.2786924 -1.714547e-18)
(1.143861 0.6463851 1.260899e-20)
(2.975537 1.23782 -1.08227e-18)
(7.156887 2.202227 1.522268e-20)
(0.2489722 -0.8522084 0)
(-9.015091 -4.229796 8.27754e-18)
(-8.845714 -3.599751 -2.007515e-17)
(-7.283508 -2.91359 -6.465988e-18)
(-4.748353 -1.992191 -1.982073e-20)
(-2.606978 -1.125297 -3.388945e-20)
(-0.9007615 -0.1830353 1.097453e-20)
(1.11895 1.089196 0)
(2.757456 2.144116 -2.338774e-20)
(2.975517 2.371237 2.82241e-20)
(2.66218 2.13551 -1.007704e-21)
(1.607943 1.165641 -2.868796e-19)
(-0.9937835 -1.218827 9.947418e-19)
(-0.8411639 -0.9000171 8.830154e-19)
(-0.6547473 -0.6010793 2.274353e-21)
(0.1522893 0.4302557 -1.128042e-18)
(0.827433 1.381002 -9.666946e-21)
(1.33105 2.234302 -1.568417e-18)
(1.648964 2.964073 1.45808e-20)
(1.851525 3.599609 -4.771438e-21)
(2.072304 4.286601 -7.163959e-21)
(2.136702 4.714433 0)
(1.959609 4.849148 0)
(1.717421 4.912821 -2.733723e-18)
(1.513334 5.115741 0)
(1.36447 5.550033 -3.412028e-18)
(1.242985 6.171387 1.947366e-18)
(1.101482 6.868706 -1.813719e-20)
(0.9071573 7.533583 1.79272e-20)
(0.655776 8.086808 1.321664e-18)
(0.3595523 8.500331 -7.08742e-19)
(0.04914217 8.726199 -3.533661e-19)
(-0.02479899 8.733404 2.913898e-19)
(-0.2387759 8.560414 -5.452724e-19)
(-0.2814167 8.623195 1.403963e-20)
(-0.1476457 6.843529 -8.601161e-19)
(-0.002101129 2.535354 0)
(0.3565001 -1.47002 -3.447317e-18)
(0.8798459 -2.25759 -3.202133e-20)
(1.287046 -3.483517 2.174855e-18)
(0.861356 -3.432693 3.816101e-18)
(1.20139 -2.774291 3.838859e-18)
(2.144751 -3.748604 3.547923e-18)
(2.141578 -4.097984 -2.825434e-20)
(1.48875 -3.261112 0)
(0.748894 -1.996353 0)
(0.07093427 -0.5937882 2.537594e-18)
(-0.3761895 0.5332326 2.786341e-18)
(0.2649408 -0.2651016 3.071952e-18)
(-0.519064 0.002616639 4.948144e-20)
(-2.746757 2.075673 0)
(-4.399031 3.802912 5.759168e-18)
(-5.677976 4.825385 7.291056e-18)
(-6.47482 5.331044 -8.50279e-18)
(-6.570255 5.360436 0)
(-5.66856 5.355569 6.596439e-18)
(-1.672635 3.066114 0)
(5.546261 -3.259593 -9.523667e-19)
(4.405382 -3.241209 0)
(4.211035 -2.527472 -4.124889e-18)
(4.698002 -2.210076 -1.072772e-17)
(4.963038 -2.232809 0)
(3.91953 -1.988664 0)
(2.043993 -1.369526 1.178953e-20)
(0.03243587 -0.1430006 -7.777553e-18)
(-3.217845 1.50931 6.879675e-18)
(2.621041 0.6295461 8.677751e-18)
(14.22092 -1.139427 -1.894172e-18)
(17.98604 -0.9837729 1.962429e-18)
(19.23665 -0.4382027 -9.831176e-19)
(19.19301 0.02503239 0)
(18.96698 0.6056408 0)
(18.99865 1.319545 -2.328984e-18)
(18.97929 2.068511 -2.411652e-18)
(18.89553 2.816691 -4.708977e-18)
(18.73363 3.553968 4.651153e-18)
(18.5132 4.279411 1.090116e-19)
(18.23208 4.972728 -7.218766e-20)
(17.87974 5.641897 0)
(17.46277 6.268887 0)
(16.99228 6.86595 8.372023e-18)
(16.48265 7.431276 -8.073842e-18)
(15.92837 7.946394 0)
(15.32415 8.412073 0)
(14.67816 8.820755 1.050493e-19)
(13.99526 9.176093 -6.658609e-18)
(13.2852 9.471351 0)
(12.55137 9.703604 -5.469096e-18)
(11.80191 9.885774 -4.965753e-18)
(11.04571 10.01147 -4.383146e-18)
(10.27877 10.06534 3.887698e-18)
(9.501613 10.05301 -4.812711e-20)
(8.728201 9.985942 2.818532e-18)
(7.967325 9.864769 0)
(7.221246 9.679879 -1.702573e-18)
(6.48967 9.431673 -1.310412e-20)
(5.776199 9.128352 8.823576e-21)
(5.092408 8.761379 -1.085151e-20)
(4.432864 8.340221 0)
(3.810542 7.868674 -1.091158e-18)
(3.225851 7.352713 -1.416753e-20)
(2.685748 6.794527 2.072275e-18)
(2.190747 6.197237 1.270705e-18)
(1.745614 5.562109 -1.484748e-18)
(1.350471 4.894516 -1.685813e-18)
(1.009345 4.206457 1.863431e-18)
(0.7210652 3.507896 -2.032626e-18)
(0.4988151 2.792744 -1.058961e-18)
(0.3252317 2.073987 2.26503e-18)
(0.2140228 1.353326 1.196604e-18)
(0.1782326 0.5887049 2.455103e-21)
(0.1977793 -0.2362098 6.256407e-19)
(0.2582293 -1.051581 -9.442647e-21)
(0.3893458 -1.821561 0)
(0.5816872 -2.562121 -1.695021e-20)
(0.8283411 -3.280282 -1.511451e-20)
(1.130607 -3.973771 -1.897729e-18)
(1.482982 -4.636419 3.581509e-18)
(1.891547 -5.266506 -1.618119e-18)
(2.342713 -5.866276 2.77017e-18)
(2.837143 -6.419548 2.031175e-20)
(3.376317 -6.927408 0)
(3.950121 -7.396541 1.528192e-18)
(4.557982 -7.812929 1.249022e-20)
(5.200085 -8.177569 -5.856403e-19)
(5.864843 -8.49705 0)
(6.545957 -8.754121 4.289688e-19)
(7.241898 -8.943363 0)
(7.949068 -9.077327 -4.43276e-20)
(8.661408 -9.154515 1.899015e-18)
(9.37842 -9.168983 0)
(10.09008 -9.129176 -2.903851e-18)
(10.78878 -9.028481 -3.367014e-18)
(11.46662 -8.864098 -3.799467e-18)
(12.11871 -8.638387 0)
(12.74838 -8.356218 -9.185194e-18)
(13.34899 -8.024458 7.393652e-20)
(13.91316 -7.637405 0)
(14.43302 -7.201851 0)
(14.90411 -6.719129 0)
(15.32426 -6.198273 5.943481e-18)
(15.68741 -5.645043 -6.122592e-18)
(15.98261 -5.056421 0)
(16.20802 -4.43547 0)
(16.36922 -3.795538 3.082429e-18)
(16.47058 -3.150348 2.422412e-20)
(16.51537 -2.535027 0)
(16.71082 -2.074066 0)
(16.76923 -1.792165 -1.226605e-18)
(14.56406 -1.445581 1.488705e-19)
(5.903939 -0.892886 0)
(1.151329 -0.07515138 1.102872e-18)
(4.224261 1.020809 3.769649e-20)
(5.771305 1.458426 -6.871981e-21)
(6.432137 1.682133 -1.617174e-20)
(6.029956 1.974663 8.472219e-19)
(6.208966 1.673266 2.337147e-19)
(-2.012094 -2.330715 1.04886e-20)
(-7.801945 -4.29776 5.494355e-20)
(-7.942125 -3.243135 8.373813e-18)
(-6.430871 -2.242193 5.309757e-18)
(-4.002066 -1.324354 0)
(-2.06554 -0.6181658 1.619846e-18)
(-0.763579 0.1239717 0)
(0.6773826 1.047009 -6.656883e-22)
(2.218186 1.856097 2.000243e-20)
(2.554464 2.026862 1.379811e-21)
(2.46694 1.842712 -1.33864e-21)
(1.835546 1.067088 2.317643e-19)
(-0.7381396 -1.164588 -4.044161e-19)
(-0.7752099 -0.8291499 -7.315493e-19)
(-0.7701904 -0.6129506 -8.501824e-19)
(0.1043814 0.5996936 -9.178204e-19)
(0.7993447 1.521391 0)
(1.303779 2.325196 -9.554059e-22)
(1.639293 3.024509 0)
(1.852488 3.620976 -1.596525e-18)
(2.013362 4.165727 1.740314e-18)
(2.106693 4.682902 0)
(2.000396 5.029661 0)
(1.782777 5.204753 4.489899e-18)
(1.565428 5.370577 -1.231112e-18)
(1.392449 5.70433 2.793057e-18)
(1.266277 6.247859 -1.329581e-20)
(1.145693 6.907912 1.314241e-20)
(0.9883285 7.557519 0)
(0.7846459 8.101513 -1.079186e-18)
(0.5304437 8.499036 1.139916e-18)
(0.2529361 8.719921 2.943407e-19)
(-0.1752169 8.695628 -4.809922e-19)
(-0.3334536 8.419117 -1.351321e-20)
(-0.2397815 8.215905 1.295424e-20)
(-0.04413394 7.946021 -2.00379e-20)
(0.04725439 5.099863 2.130838e-20)
(0.4665066 -0.2852021 1.345292e-18)
(1.120666 -2.472497 -2.612502e-20)
(1.468498 -3.642157 -1.77109e-18)
(0.9194191 -3.785537 5.134614e-20)
(1.465643 -3.393602 -3.048609e-18)
(2.234844 -3.77279 -4.706288e-20)
(2.016891 -3.890571 0)
(1.338222 -3.287901 0)
(0.5443961 -2.044556 -2.142929e-18)
(-0.06517491 -0.6629534 -2.101608e-18)
(-0.3670481 0.4478258 -4.559547e-18)
(-0.3234388 0.5082581 -2.524383e-18)
(-1.389586 0.7221001 0)
(-3.38546 2.318377 0)
(-4.830638 3.923128 -9.327765e-18)
(-5.857853 4.794933 -1.193646e-17)
(-6.321471 5.123617 1.115047e-19)
(-6.122562 5.054449 -2.209385e-19)
(-4.67329 5.040444 -1.091318e-17)
(-2.068742 4.293225 -2.735795e-18)
(4.557956 -2.029697 7.656637e-19)
(5.983396 -3.981376 1.715055e-18)
(7.505662 -4.039203 3.183282e-18)
(8.677877 -3.919109 4.185938e-18)
(9.140118 -3.992868 0)
(8.502162 -3.92271 -1.015912e-19)
(7.161463 -3.450312 -7.706866e-18)
(4.967592 -2.05237 6.736609e-20)
(3.194252 0.2198831 6.53852e-20)
(9.999511 0.2585194 -3.072269e-18)
(18.65844 -1.148897 -1.381649e-18)
(19.09715 -1.129458 -3.933742e-20)
(18.90917 -0.6616916 -8.117326e-19)
(18.76615 -0.2898113 -4.283297e-19)
(18.9398 0.180052 -3.523806e-21)
(19.09755 0.8135523 0)
(19.14653 1.512135 -3.009665e-20)
(19.09592 2.237211 1.979549e-18)
(18.95441 2.957586 -7.692397e-18)
(18.74303 3.688426 5.876945e-20)
(18.46595 4.393929 -3.753053e-18)
(18.11983 5.076742 -1.122219e-19)
(17.70902 5.718164 -7.036804e-18)
(17.24221 6.334107 2.952602e-21)
(16.73511 6.923665 6.659515e-18)
(16.18431 7.459844 -6.265962e-18)
(15.58244 7.949333 0)
(14.93801 8.381039 8.503398e-20)
(14.25465 8.761689 -8.558539e-20)
(13.54195 9.083788 0)
(12.8033 9.34389 4.505738e-18)
(12.04777 9.553654 7.709732e-20)
(11.2841 9.70688 3.664742e-18)
(10.50961 9.787003 -3.138643e-18)
(9.726405 9.797223 -2.68413e-18)
(8.942911 9.754394 -2.279743e-18)
(8.172729 9.655813 -1.778374e-18)
(7.417803 9.491618 1.723183e-20)
(6.676133 9.263201 -1.740166e-20)
(5.952174 8.97898 0)
(5.25753 8.629879 1.259479e-20)
(4.586499 8.225543 -1.074928e-20)
(3.953475 7.768972 9.073379e-19)
(3.358278 7.266648 1.307565e-18)
(2.810193 6.719989 -1.697082e-18)
(2.307051 6.133115 -1.04312e-18)
(1.854208 5.506985 -5.339568e-21)
(1.451371 4.846954 1.383249e-18)
(1.105282 4.164029 2.478649e-20)
(0.811042 3.46958 1.629485e-18)
(0.5871024 2.755986 1.406341e-20)
(0.4108939 2.038156 -9.469543e-19)
(0.2999436 1.321056 -4.878395e-19)
(0.2730015 0.5646325 -6.145534e-23)
(0.2971921 -0.2397266 4.961259e-19)
(0.3529477 -1.043996 7.732127e-21)
(0.4804741 -1.806092 -9.502e-19)
(0.6728677 -2.538951 1.819576e-18)
(0.9204028 -3.248473 0)
(1.224748 -3.932549 -2.265474e-21)
(1.579459 -4.58545 -1.47222e-18)
(1.993101 -5.205315 1.365266e-18)
(2.447756 -5.795434 -2.372064e-18)
(2.949907 -6.336276 2.855267e-20)
(3.498766 -6.830953 -2.829401e-20)
(4.078029 -7.288575 -1.255957e-18)
(4.694628 -7.690259 0)
(5.349629 -8.037529 4.758049e-19)
(6.02201 -8.342149 -2.394532e-21)
(6.71182 -8.581688 -4.172947e-20)
(7.417799 -8.751658 -6.965675e-19)
(8.133276 -8.866755 -1.170348e-18)
(8.853247 -8.923982 -2.53781e-20)
(9.5775 -8.917297 1.900926e-18)
(10.29717 -8.854417 -3.298591e-20)
(11.00165 -8.731208 -2.660828e-18)
(11.68479 -8.542717 0)
(12.3431 -8.290758 3.344351e-18)
(12.97653 -7.984765 3.726619e-18)
(13.57744 -7.632706 3.877245e-18)
(14.14106 -7.225262 -4.141383e-18)
(14.65879 -6.771636 4.44126e-18)
(15.1277 -6.272234 0)
(15.54582 -5.73604 -9.721686e-18)
(15.90529 -5.175165 1.009877e-17)
(16.19779 -4.580876 -1.187919e-19)
(16.41847 -3.960298 -2.541718e-18)
(16.55742 -3.330744 -2.527599e-18)
(16.59534 -2.723948 0)
(16.51935 -2.172154 1.217482e-18)
(16.3592 -1.768736 -1.135487e-18)
(16.5462 -1.637245 5.139766e-19)
(17.13255 -1.775358 -1.204141e-19)
(13.80174 -1.392645 -2.879224e-19)
(11.09642 0.02869692 1.119113e-20)
(11.44388 1.660547 -1.452972e-18)
(11.48295 2.322037 1.054206e-20)
(10.93103 2.41087 0)
(9.240935 2.436692 0)
(5.816929 0.9614325 -2.034888e-20)
(-2.527026 -3.326159 1.720323e-20)
(-5.8893 -4.090752 0)
(-6.952634 -2.741901 0)
(-5.577961 -1.482906 0)
(-3.236453 -0.5984545 2.472906e-18)
(-1.34173 -0.01425922 -2.668143e-18)
(-0.3669254 0.5395322 5.667902e-19)
(0.344376 1.028004 -9.129004e-20)
(1.496199 1.451415 -4.543287e-22)
(1.904351 1.569029 1.062126e-21)
(2.143459 1.484745 1.366144e-19)
(1.9877 0.8797893 4.124068e-21)
(-0.2232477 -0.9175361 2.812745e-21)
(-0.8347579 -0.9108794 -7.572391e-21)
(-0.7711602 -0.4444267 -1.14782e-20)
(-0.008134721 0.7329587 7.697059e-19)
(0.6996275 1.595867 0)
(1.215084 2.370799 1.05144e-18)
(1.556139 3.052863 -1.189432e-18)
(1.770172 3.648777 1.304339e-18)
(1.914572 4.177316 0)
(2.000361 4.614842 0)
(1.928979 4.914147 -2.792525e-20)
(1.730945 5.084487 -1.856036e-18)
(1.51232 5.271014 1.048695e-18)
(1.319889 5.647602 -1.149317e-18)
(1.171832 6.240475 0)
(1.034958 6.933849 0)
(0.8639625 7.5921 0)
(0.6459656 8.124491 -8.653185e-19)
(0.373342 8.496866 -4.83068e-19)
(0.08150426 8.695226 -4.849867e-19)
(-0.03886699 8.620587 1.981113e-19)
(-0.1952961 8.402433 0)
(-0.14689 7.925267 -6.657286e-19)
(0.1174443 7.895675 0)
(0.2878548 6.659907 -1.012238e-18)
(0.664293 1.45496 0)
(1.412571 -2.415397 0)
(1.586658 -3.518299 -1.470775e-18)
(0.8046209 -3.684039 -2.58806e-18)
(1.473326 -3.410084 2.557663e-18)
(2.206444 -3.623272 -2.415999e-18)
(1.910365 -3.755246 2.483356e-18)
(1.130519 -3.264745 0)
(0.3031712 -2.08937 3.504692e-18)
(-0.2109007 -0.752715 1.715917e-18)
(-0.4272513 0.3274047 1.910024e-18)
(-0.8198323 1.01865 -6.052389e-20)
(-2.164259 1.337121 -7.998248e-20)
(-3.803449 2.328789 -2.649175e-18)
(-4.950438 3.709516 7.68357e-18)
(-5.627585 4.399944 4.953799e-18)
(-5.732188 4.594966 1.883324e-19)
(-5.268372 4.531782 6.104322e-18)
(-3.613647 4.645057 4.649719e-18)
(-1.372041 4.76243 2.222766e-18)
(4.23137 -0.9192783 0)
(7.796635 -4.479877 -4.083845e-20)
(10.36125 -5.109771 0)
(11.86477 -5.17149 3.076735e-18)
(12.47686 -5.34297 3.545031e-18)
(12.48832 -5.495362 4.245486e-18)
(12.41764 -5.270172 -1.489056e-19)
(12.00004 -3.77051 1.140349e-19)
(12.10116 -1.07948 -7.420893e-18)
(16.48128 -0.1061865 0)
(19.53508 -0.9282743 -1.119701e-18)
(18.25278 -1.018007 -1.338964e-18)
(18.40222 -0.498512 1.364211e-18)
(18.48601 0.006800677 3.38689e-19)
(18.66819 0.5884662 0)
(18.78792 1.266422 7.679268e-19)
(18.82254 1.980527 0)
(18.76759 2.691361 0)
(18.62352 3.396242 3.21548e-18)
(18.4124 4.109975 -4.877295e-20)
(18.13878 4.788238 5.029521e-20)
(17.79564 5.441163 -2.952257e-18)
(17.39152 6.047883 5.909243e-18)
(16.9315 6.630071 -5.621478e-18)
(16.43411 7.188364 -5.412869e-18)
(15.89926 7.683228 2.451991e-19)
(15.311 8.139112 -1.567446e-19)
(14.68403 8.534765 -1.382374e-19)
(14.01741 8.884958 -3.978016e-18)
(13.32401 9.178272 -4.055505e-18)
(12.60543 9.409835 -1.072988e-19)
(11.8677 9.59748 3.415433e-18)
(11.12687 9.728033 0)
(10.37702 9.785541 2.584702e-18)
(9.612329 9.780325 2.209788e-18)
(8.848379 9.724131 1.776438e-18)
(8.100224 9.613642 1.463404e-18)
(7.366409 9.440153 0)
(6.645828 9.20302 0)
(5.939523 8.915183 3.004387e-19)
(5.265498 8.561637 0)
(4.609361 8.157261 0)
(3.992841 7.701398 8.091898e-19)
(3.415139 7.200344 -1.053784e-20)
(2.877976 6.658134 -1.582717e-20)
(2.383276 6.076048 -2.906902e-20)
(1.93923 5.454761 2.042505e-18)
(1.545435 4.799222 0)
(1.20857 4.120031 0)
(0.9109401 3.431828 1.380828e-18)
(0.691144 2.719527 7.016724e-19)
(0.5144845 2.00161 7.644242e-19)
(0.4037301 1.287491 -3.995274e-19)
(0.3860898 0.5384236 0)
(0.4166423 -0.2389426 -4.272949e-22)
(0.4667297 -1.031566 2.494499e-20)
(0.583856 -1.785662 7.540265e-19)
(0.7707569 -2.508445 -1.491603e-18)
(1.013929 -3.207865 -4.303735e-20)
(1.314191 -3.883315 1.322663e-18)
(1.664373 -4.528396 3.93299e-20)
(2.073182 -5.141547 2.193075e-18)
(2.514971 -5.728142 -1.073629e-20)
(3.004072 -6.265444 -1.706531e-18)
(3.544378 -6.757431 4.695241e-20)
(4.109831 -7.21573 0)
(4.70684 -7.620007 7.59244e-19)
(5.347989 -7.969669 0)
(6.006275 -8.279184 0)
(6.674369 -8.528269 -2.576813e-19)
(7.361064 -8.707515 1.129899e-18)
(8.059679 -8.832974 3.309582e-20)
(8.759523 -8.904161 -7.988248e-20)
(9.46423 -8.912839 -1.560012e-18)
(10.16382 -8.869468 -1.828793e-18)
(10.84853 -8.767482 2.264979e-18)
(11.51077 -8.604277 -2.493291e-18)
(12.1478 -8.380795 -6.448467e-20)
(12.76413 -8.101523 0)
(13.34751 -7.78102 -3.356604e-18)
(13.8957 -7.405035 7.084887e-18)
(14.39905 -6.98645 -3.778141e-18)
(14.8545 -6.523122 0)
(15.26403 -6.018825 7.862199e-20)
(15.61735 -5.48504 -4.042865e-18)
(15.90479 -4.914012 -6.431002e-20)
(16.11884 -4.315328 1.061445e-19)
(16.25744 -3.701878 -6.492666e-20)
(16.31176 -3.084675 0)
(16.26711 -2.496177 -1.942331e-18)
(16.1472 -2.001094 8.888315e-19)
(15.98164 -1.67137 4.208936e-19)
(16.85303 -1.782967 -6.221928e-21)
(17.11792 -1.451958 2.24614e-19)
(16.72192 0.2207736 5.606016e-19)
(16.08826 2.057232 0)
(14.82802 2.751396 7.623436e-19)
(13.49889 2.693862 -2.386123e-20)
(11.48931 2.429447 5.706133e-19)
(6.25419 0.1862659 0)
(-1.655921 -3.851273 0)
(-4.031313 -3.835936 0)
(-5.463415 -2.067901 8.009287e-20)
(-4.453684 -0.5501155 3.679667e-18)
(-2.426854 0.2017996 -2.120298e-18)
(-0.5891067 0.6205265 1.161119e-18)
(0.2181048 0.9892692 -9.115549e-19)
(0.2720726 1.092291 7.596594e-20)
(0.9643211 1.144164 0)
(1.413072 1.253726 -1.916941e-21)
(1.868534 1.219863 -1.128329e-19)
(2.044743 0.6391248 2.00988e-19)
(0.2688652 -0.735143 -7.406704e-21)
(-0.8635944 -1.007283 -1.725905e-20)
(-0.7215026 -0.1733976 1.653413e-20)
(-0.1695435 0.802402 0)
(0.5148366 1.594084 -7.55745e-19)
(1.052554 2.345286 2.883866e-20)
(1.417065 3.019284 1.926745e-18)
(1.652962 3.605621 -1.10726e-18)
(1.826525 4.124867 7.291545e-20)
(1.939648 4.531532 -1.321191e-18)
(1.861734 4.788616 0)
(1.654844 4.930615 -1.507035e-18)
(1.431208 5.132073 8.573244e-19)
(1.229071 5.563929 -5.903716e-20)
(1.078983 6.213163 1.126843e-18)
(0.9517513 6.933298 -5.491566e-20)
(0.7992129 7.588046 1.962756e-20)
(0.6138405 8.098828 7.238393e-19)
(0.3830003 8.449512 -6.081378e-21)
(0.1697377 8.634932 7.02736e-21)
(-0.07718495 8.560174 9.937819e-21)
(-0.175936 8.372324 2.969145e-19)
(-0.1047826 7.920252 5.52281e-19)
(0.2364699 7.572063 -4.836333e-19)
(0.6239362 7.366572 8.141476e-19)
(1.00874 3.410546 0)
(1.738477 -1.887384 9.768719e-19)
(1.628192 -3.130716 1.281876e-18)
(0.5706147 -3.238441 2.150561e-18)
(1.420312 -3.191529 0)
(2.145363 -3.363293 0)
(1.777469 -3.57227 -2.059387e-18)
(0.893448 -3.197398 -4.94657e-20)
(0.01685659 -2.149941 -1.386842e-18)
(-0.3691079 -0.8873783 -1.403054e-18)
(-0.567149 0.2328573 -1.485287e-18)
(-1.041748 0.9747415 1.625878e-18)
(-2.568927 1.365991 -1.682692e-18)
(-3.817883 1.861426 2.09827e-18)
(-4.614697 3.075661 -3.123023e-18)
(-4.905698 3.595032 0)
(-4.791706 3.806663 0)
(-4.268875 3.901574 -5.260757e-18)
(-2.54396 4.263962 0)
(-0.01492959 4.753667 -3.787244e-20)
(4.655753 -0.04462922 1.825142e-20)
(9.318522 -4.500306 -1.002981e-18)
(12.02568 -5.487517 -4.616276e-20)
(13.52093 -5.716068 -2.703327e-20)
(14.29091 -5.984555 -2.869103e-18)
(14.98108 -6.337039 -1.180917e-20)
(16.20661 -6.415059 2.271738e-18)
(17.60204 -5.078384 -9.651223e-20)
(18.44699 -2.143594 2.991087e-18)
(19.38117 -0.4640301 -7.027021e-20)
(18.74386 -0.8622237 3.84644e-18)
(17.94483 -1.051242 3.343019e-20)
(18.38762 -0.598432 -6.932912e-21)
(18.50296 -0.1980467 -5.776428e-19)
(18.69623 0.3084243 -4.70154e-21)
(18.81813 0.9226819 -6.331081e-19)
(18.85492 1.601529 -3.983502e-20)
(18.79817 2.302551 -1.228856e-18)
(18.65153 3.000664 2.516254e-18)
(18.44104 3.720602 -2.483884e-18)
(18.17548 4.396699 4.750213e-18)
(17.83611 5.072724 2.584474e-18)
(17.43404 5.694984 0)
(16.97311 6.295885 0)
(16.47683 6.875788 4.389279e-18)
(15.94331 7.389936 4.188259e-18)
(15.35564 7.864122 0)
(14.73202 8.271579 -1.112886e-19)
(14.06563 8.636601 3.607195e-18)
(13.36936 8.950194 3.232066e-18)
(12.65177 9.194205 2.868955e-18)
(11.92023 9.38774 -7.75586e-20)
(11.18128 9.531522 -2.240738e-18)
(10.4283 9.606113 5.889757e-20)
(9.668188 9.607298 -5.946128e-20)
(8.912635 9.555155 -1.500356e-18)
(8.16721 9.454733 1.15616e-18)
(7.429123 9.297248 0)
(6.716405 9.064834 0)
(6.012409 8.78755 -4.577564e-19)
(5.346995 8.440384 -9.262586e-21)
(4.695401 8.044934 -8.907553e-21)
(4.094512 7.593703 -6.242793e-19)
(3.524667 7.100364 -1.811059e-18)
(2.979323 6.575004 1.09816e-18)
(2.486693 6.004429 -1.393916e-18)
(2.047641 5.39283 -7.996702e-19)
(1.664199 4.74421 -2.775861e-20)
(1.335553 4.068588 0)
(1.029152 3.391683 -1.077716e-18)
(0.8203412 2.683379 -3.623033e-20)
(0.6392684 1.964993 -6.359268e-19)
(0.5283117 1.254809 3.424516e-19)
(0.5203287 0.511474 5.391142e-23)
(0.5578869 -0.2342654 -3.531646e-19)
(0.5945935 -1.01721 3.07452e-20)
(0.7084691 -1.759549 -6.566172e-19)
(0.8891799 -2.467792 1.221224e-18)
(1.12734 -3.15667 -1.196792e-18)
(1.423671 -3.823978 2.166287e-21)
(1.769028 -4.459981 1.030215e-18)
(2.181641 -5.062571 -1.74482e-18)
(2.614473 -5.644044 1.573917e-18)
(3.092628 -6.176332 1.276049e-18)
(3.633514 -6.659654 7.152063e-21)
(4.205189 -7.106245 7.571266e-21)
(4.793945 -7.504462 -5.996924e-19)
(5.418698 -7.855575 3.912221e-19)
(6.076434 -8.157165 9.538846e-22)
(6.742635 -8.397102 1.470647e-19)
(7.421319 -8.570611 -8.737915e-19)
(8.112133 -8.692643 6.878595e-19)
(8.816164 -8.74753 -4.777658e-20)
(9.517823 -8.747304 -1.232314e-18)
(10.21012 -8.700336 2.996811e-18)
(10.89481 -8.586096 5.773419e-20)
(11.55435 -8.413194 1.935118e-18)
(12.19189 -8.174558 -2.28885e-18)
(12.81027 -7.879427 7.122826e-20)
(13.39315 -7.546082 -2.633729e-18)
(13.94246 -7.151944 -2.715531e-18)
(14.44606 -6.716632 9.335818e-20)
(14.9038 -6.229722 -3.112166e-18)
(15.3138 -5.703961 3.215394e-18)
(15.66617 -5.154297 0)
(15.95137 -4.573515 0)
(16.16701 -3.977301 1.701372e-18)
(16.30848 -3.375883 1.652786e-18)
(16.3598 -2.797081 0)
(16.30526 -2.267373 8.31398e-19)
(16.1926 -1.853049 7.274278e-19)
(15.99247 -1.56154 -3.58328e-19)
(16.2468 -1.574963 8.124667e-20)
(17.21488 -1.191898 1.833113e-19)
(17.65527 0.4041318 -4.599171e-19)
(16.85383 2.061721 0)
(15.23554 2.653356 3.172282e-20)