/*--------------------------------*- C++ -*----------------------------------*\
| =========                 |                                                 |
| \\      /  F ield         | OpenFOAM: The Open Source CFD Toolbox           |
|  \\    /   O peration     | Version:  2406                                  |
|   \\  /    A nd           | Website:  www.openfoam.com                      |
|    \\/     M anipulation  |                                                 |
\*---------------------------------------------------------------------------*/
FoamFile
{
    version     2.0;
    format      ascii;
    arch        "LSB;label=32;scalar=64";
    class       volScalarField;
    location    "0.5";
    object      p;
}
// * * * * * * * * * * * * * * * * * * * * * * * * * * * * * * * * * * * * * //

dimensions      [0 2 -2 0 0 0 0];

internalField   nonuniform List<scalar> 
4536
(
-1.98523e-05
2.712489e-05
-3.2981e-06
-1.810332e-05
4.059828e-05
4.294136e-05
2.773378e-05
2.569228e-05
-1.708249e-06
3.40308e-05
-8.102051e-06
-9.219697e-07
-1.043132e-05
3.437717e-05
2.801155e-05
1.474107e-05
3.199203e-05
-4.333349e-06
3.832373e-05
4.243028e-05
2.430851e-05
2.486282e-05
1.933962e-06
2.551432e-05
-1.214145e-07
4.589916e-05
2.316605e-05
2.567733e-05
-1.653743e-05
5.973582e-06
1.578417e-05
-8.172616e-07
3.403501e-05
1.229935e-05
1.705064e-05
3.442411e-05
2.872447e-05
2.992646e-05
2.670979e-05
-6.629683e-06
2.096278e-05
1.100758e-05
2.801716e-05
4.379825e-05
-9.879195e-06
-2.115314e-05
2.596534e-05
1.430888e-05
-5.212207e-06
3.473656e-05
2.301791e-05
3.949108e-05
2.284333e-05
-3.840291e-06
4.726964e-05
3.510135e-05
3.913913e-05
1.744438e-05
-2.208778e-05
-3.976254e-06
4.033499e-05
2.200948e-05
-6.901366e-06
2.998991e-05
1.920385e-05
6.748943e-06
2.770277e-05
9.09905e-06
2.170589e-05
6.114705e-06
1.963728e-05
3.570125e-05
2.105878e-06
-1.33281e-05
2.451522e-05
-1.058059e-06
8.081618e-06
2.927784e-05
-1.945209e-05
-9.284869e-06
1.828959e-05
5.482799e-05
7.722239e-05
-1.17792e-05
3.678216e-05
2.0598e-05
2.114502e-05
2.059106e-05
1.831858e-05
3.826408e-05
2.815955e-05
3.845068e-05
3.664707e-05
1.311821e-05
2.501925e-05
3.108961e-05
1.177499e-06
2.767183e-05
-2.127853e-05
6.49131e-06
-2.046572e-05
1.867777e-06
1.331232e-05
3.284933e-05
-1.193285e-05
-4.949115e-06
1.674815e-05
-4.64658e-06
2.126665e-05
1.355438e-05
6.4627e-05
3.131985e-05
2.437933e-05
3.747012e-05
2.925957e-05
1.987905e-06
-1.346985e-05
2.239697e-05
3.21227e-05
1.039688e-05
3.384301e-06
1.177612e-05
8.567865e-07
-9.340987e-06
9.748598e-06
4.48214e-05
3.314385e-05
1.751994e-05
6.409294e-06
3.603344e-05
-1.17563e-05
-1.789696e-06
4.358395e-05
2.26121e-05
4.845544e-05
2.430878e-05
-1.309811e-05
5.187372e-06
2.583068e-05
1.378632e-05
3.216463e-05
-1.057663e-05
1.147252e-05
3.392418e-05
2.355459e-05
-2.946493e-06
8.126595e-06
2.681816e-05
2.762756e-05
4.703972e-05
2.484708e-05
2.923413e-05
-5.883185e-06
1.687609e-05
4.007361e-05
3.800722e-05
3.906726e-05
1.234005e-05
3.035298e-05
-4.813289e-07
3.083646e-06
2.927252e-05
1.698275e-06
3.327317e-05
4.690278e-05
2.840003e-05
8.405991e-06
2.146648e-05
-3.584351e-07
4.454121e-05
3.841769e-05
3.026226e-05
1.621242e-05
7.264869e-05
2.017941e-05
3.976514e-05
4.0108e-06
2.448153e-05
2.855879e-05
1.867822e-05
1.517652e-05
2.559094e-05
6.191385e-05
3.605929e-05
4.209091e-05
5.338726e-05
1.239613e-06
1.981965e-05
5.81037e-06
2.106145e-05
-1.420142e-06
-1.617706e-05
1.414582e-07
-7.364799e-06
1.808076e-07
4.711386e-05
4.664745e-05
3.937189e-05
4.025802e-05
3.177373e-05
2.3295e-05
2.111343e-05
2.579843e-05
2.578604e-05
2.637654e-05
2.558642e-05
2.071641e-05
-1.00953e-05
2.727952e-05
3.490415e-05
-1.027457e-05
2.007983e-05
1.090753e-05
4.551366e-05
1.697515e-05
2.522655e-05
-6.354276e-06
-4.7981e-06
3.186203e-05
3.387468e-05
8.990873e-06
1.965822e-05
2.223672e-08
-4.016938e-06
3.074796e-07
2.012435e-05
2.236201e-05
-1.178541e-05
2.438908e-05
-7.851208e-06
1.661917e-05
-5.424974e-06
7.859207e-06
3.988828e-05
4.195686e-06
4.144261e-05
6.640743e-05
3.482737e-05
2.428583e-05
1.136718e-05
-2.325193e-06
3.899657e-05
1.315694e-05
1.739458e-05
4.096022e-05
6.684833e-06
5.150686e-06
2.050865e-05
2.758032e-05
1.060118e-05
-3.106251e-06
3.70799e-05
5.455481e-05
6.096304e-05
3.803669e-05
1.88638e-05
3.881645e-06
2.010215e-05
1.018535e-06
7.781688e-07
2.705474e-05
2.471967e-05
3.764541e-05
-1.304862e-05
6.594045e-05
2.153735e-06
1.188003e-05
1.277126e-05
4.190231e-05
3.378715e-05
-2.652307e-06
1.28495e-05
-1.662375e-05
3.671299e-05
2.489179e-05
8.651743e-06
8.495451e-06
9.575119e-06
3.650781e-05
4.35681e-05
1.724133e-05
3.035764e-05
5.195451e-05
2.843229e-05
-9.981003e-06
9.48433e-06
1.498863e-05
4.958571e-05
3.233125e-05
1.766155e-06
-3.582702e-06
-2.8503e-06
5.587416e-06
2.747236e-05
2.6861e-05
2.429791e-05
5.946166e-06
1.120449e-05
2.914853e-05
2.597705e-05
8.705913e-06
7.813517e-06
1.056372e-05
-5.333857e-06
-1.14164e-05
-1.335517e-05
-1.738752e-05
3.43978e-06
7.732475e-06
3.462256e-05
2.177581e-05
4.76934e-05
4.364754e-05
1.704656e-05
-9.693446e-06
2.363829e-05
3.098925e-05
3.593986e-05
2.524143e-05
2.390461e-05
2.413851e-05
2.500787e-05
2.441031e-05
2.26533e-05
3.794286e-05
4.770206e-05
1.418549e-05
2.667329e-05
2.673562e-05
1.149221e-05
4.390461e-06
1.152079e-05
5.912175e-07
2.509471e-06
-1.370857e-05
5.435741e-06
2.667121e-05
3.472479e-05
2.965713e-05
3.088913e-05
6.436916e-06
4.08857e-05
1.142753e-05
-1.493268e-05
1.736444e-05
4.819893e-05
2.555174e-05
1.452748e-05
2.710319e-05
2.306123e-05
3.97666e-05
1.778086e-05
-1.203042e-06
2.04113e-05
3.474232e-05
3.687814e-05
3.75288e-05
5.020191e-05
2.243059e-05
5.295434e-05
2.264338e-06
2.38046e-05
5.743404e-05
3.301481e-05
2.324029e-05
5.549825e-05
1.299102e-05
-1.757711e-05
6.689036e-06
4.972666e-06
4.26497e-05
2.869826e-05
6.584749e-06
3.301921e-05
2.342451e-05
-9.512152e-06
7.65515e-06
4.014146e-05
6.716531e-06
-3.180267e-06
3.742451e-05
3.097016e-05
2.719421e-05
2.473952e-05
1.122254e-05
2.091543e-06
2.582899e-06
3.82564e-05
5.235713e-05
6.796842e-05
3.645834e-05
7.0771e-06
-2.432291e-06
3.057848e-05
5.976961e-06
-9.628543e-08
4.041162e-05
2.722404e-05
2.223045e-05
-1.254814e-05
4.06638e-05
-1.951777e-05
3.980652e-05
4.206956e-05
2.130222e-05
3.733743e-05
3.884913e-05
-4.588281e-06
2.679567e-06
2.323275e-05
-2.577369e-06
2.928133e-05
4.234464e-05
4.206542e-05
-8.46889e-06
2.667464e-06
1.271943e-05
1.73855e-05
1.521236e-05
-9.029453e-06
-8.115226e-06
3.728804e-06
3.245526e-05
6.969423e-06
2.714105e-05
2.546105e-05
1.823913e-05
1.816061e-05
2.318513e-05
2.357021e-05
3.650171e-05
1.10326e-05
6.249999e-06
-7.112828e-06
-1.451611e-06
-6.250376e-06
3.027754e-05
4.745864e-05
-6.932882e-06
3.248793e-05
3.215349e-05
4.874138e-05
-1.6331e-05
2.193312e-05
2.610304e-05
4.38431e-05
-2.314993e-05
-9.888016e-06
-3.888834e-06
3.690365e-05
2.780733e-05
3.793847e-05
2.414702e-05
-1.196538e-05
3.256618e-05
3.819108e-05
4.585757e-05
2.88318e-05
3.627453e-05
3.410576e-05
5.384376e-06
1.525387e-05
1.498662e-05
3.161017e-05
2.510677e-05
3.755038e-05
3.356041e-05
3.127171e-05
4.033807e-05
3.773589e-05
2.901817e-05
3.901399e-05
3.974305e-05
-1.817565e-07
1.875113e-05
3.441944e-05
5.360287e-05
3.370735e-05
-1.482804e-06
8.628905e-06
4.442326e-05
3.096577e-05
-1.007297e-05
-9.001481e-06
1.413452e-05
1.772253e-05
4.706818e-05
1.315126e-07
-2.617874e-07
2.9063e-05
-8.29597e-06
1.945823e-05
3.489696e-05
4.062477e-05
2.256214e-05
2.282044e-05
2.050923e-06
1.910353e-05
3.942433e-05
1.079386e-05
2.491246e-05
-1.283832e-05
3.209031e-05
2.594028e-05
3.09172e-06
1.488188e-05
5.19802e-05
-1.119553e-05
2.345158e-05
5.626051e-06
1.927667e-06
2.311639e-05
1.261734e-05
2.23066e-05
1.86335e-05
3.888005e-05
3.873739e-05
3.774207e-05
2.625069e-05
4.502494e-05
5.110126e-05
2.159887e-05
-1.73215e-07
6.732233e-06
3.825197e-06
1.318687e-06
5.004789e-06
2.924688e-05
4.289172e-05
8.603813e-06
1.073567e-05
2.817184e-05
3.340004e-05
4.022647e-05
1.917614e-05
2.577981e-05
4.297952e-05
2.763217e-05
3.661367e-05
3.595913e-05
8.528537e-06
1.924099e-05
2.627233e-05
1.341389e-05
2.467763e-05
3.052662e-05
2.392329e-05
2.093079e-06
9.728394e-06
2.958668e-05
2.811418e-05
1.731232e-05
2.311537e-05
-8.431935e-07
-6.045346e-07
-9.601465e-06
2.306663e-05
-1.251182e-06
5.348948e-05
4.118079e-05
4.276614e-05
4.402391e-05
4.404902e-05
1.956193e-05
3.643657e-05
2.099776e-05
3.635366e-05
-3.891359e-06
2.702549e-05
-8.45838e-06
2.652485e-05
2.719626e-05
2.718718e-05
3.316227e-05
3.197249e-05
3.645076e-05
1.170926e-05
-2.697975e-05
2.273101e-05
2.436448e-05
-2.84222e-05
4.451384e-05
1.229254e-05
-8.133199e-06
2.792486e-05
2.39393e-05
3.03186e-05
3.481832e-05
2.543461e-05
1.586006e-05
2.633686e-05
7.717689e-06
4.422726e-06
2.214661e-05
-2.094975e-05
5.789629e-05
5.970892e-05
2.20429e-05
-1.247607e-05
2.467513e-05
3.003074e-05
2.329152e-05
3.682975e-05
3.148765e-06
2.189053e-05
1.719437e-05
3.751314e-05
3.49052e-05
1.462923e-05
4.12374e-05
3.839648e-05
2.805578e-05
2.806906e-05
-1.197468e-05
-1.165656e-06
5.858661e-05
1.851706e-05
-2.009039e-05
7.467076e-06
1.970952e-05
1.842239e-05
-4.91901e-06
2.019423e-05
2.12408e-06
1.063447e-05
1.414422e-05
2.583595e-05
3.606588e-05
5.316042e-05
4.70661e-05
2.180984e-05
2.537794e-05
2.495216e-05
-6.431672e-07
2.693544e-05
2.657207e-05
-1.112999e-05
-3.219739e-06
3.730456e-05
3.05575e-05
-4.461072e-06
8.499497e-06
-8.957264e-06
4.94237e-05
1.075208e-05
4.73231e-05
1.916036e-05
1.786415e-05
-5.622053e-06
-9.046243e-07
2.343741e-06
3.520443e-05
2.779489e-05
-1.106136e-05
-1.358037e-05
-1.235515e-05
1.698746e-05
1.687409e-05
2.362663e-05
2.210214e-05
2.305746e-05
-8.749167e-06
-1.129991e-05
3.247612e-05
9.307343e-06
1.410254e-05
-9.963661e-06
1.072366e-06
1.367063e-05
3.88576e-05
-2.011686e-06
2.634218e-05
5.687737e-06
4.05113e-06
9.949949e-06
-1.956113e-05
9.634516e-07
-3.199001e-06
2.348746e-06
4.722806e-06
2.407653e-05
2.716625e-05
2.437928e-05
3.073133e-05
2.88207e-06
2.330895e-05
3.518778e-05
6.569471e-06
6.457411e-06
5.249172e-06
-6.351609e-06
8.037173e-06
1.722175e-05
5.606563e-06
6.805703e-06
1.379412e-05
2.119326e-05
2.965688e-05
2.275592e-05
2.239674e-05
-3.377809e-06
1.192157e-05
4.232574e-05
3.90588e-05
3.564053e-05
4.086098e-05
1.043468e-05
-1.346633e-05
5.147912e-05
3.252564e-05
2.425971e-05
3.267962e-06
1.724644e-05
4.020851e-05
4.22546e-05
7.487897e-06
-1.428498e-06
-1.413359e-06
-2.490989e-05
4.010012e-05
3.17842e-05
2.600725e-05
2.938038e-05
3.637843e-05
-2.024808e-05
-3.322481e-06
2.574388e-05
1.023764e-05
1.254952e-05
-1.477523e-05
1.795155e-05
1.97694e-05
-6.064214e-06
1.148283e-05
4.462808e-06
-5.294164e-06
1.094496e-05
5.60633e-05
1.100195e-05
4.323338e-05
7.158815e-06
5.299873e-05
-2.02896e-06
-2.288797e-06
-2.621154e-05
2.450932e-05
1.524232e-05
3.775459e-05
-1.00405e-05
2.071184e-06
2.144482e-06
3.540923e-05
-8.564046e-06
2.107799e-05
1.179852e-06
2.474535e-05
1.776181e-05
2.070138e-05
1.70331e-05
-1.639788e-05
3.857542e-05
1.924064e-05
3.286898e-05
1.514083e-05
-4.964066e-06
-1.219379e-06
3.112736e-05
3.452188e-05
3.696149e-05
1.791867e-05
-7.482445e-06
4.57693e-05
1.024698e-05
4.162335e-05
2.249073e-05
3.499463e-05
4.058074e-05
3.219364e-05
-1.308305e-05
4.353259e-05
2.893475e-05
3.195811e-05
1.492937e-05
-2.430361e-06
3.406599e-05
1.933336e-05
9.3035e-07
4.208714e-05
2.050972e-05
7.154529e-05
3.677507e-05
3.097747e-05
3.373905e-05
3.794671e-05
4.240374e-05
4.323456e-05
3.635449e-05
3.88815e-05
2.429364e-05
3.764749e-05
2.52739e-05
2.581087e-05
3.927605e-05
3.269628e-05
1.441431e-05
-1.386125e-05
2.159873e-05
3.596611e-05
-1.500818e-05
1.425562e-06
1.633615e-05
2.390267e-05
2.802711e-05
4.120833e-05
1.908433e-05
-6.037954e-06
4.960326e-05
3.37476e-05
1.49769e-05
3.044732e-06
-9.373884e-06
3.502541e-05
2.082719e-06
2.74246e-05
2.411397e-05
2.567887e-05
3.128219e-05
5.034149e-05
-1.549803e-06
1.109463e-06
-1.972879e-05
-1.461352e-05
2.082013e-05
2.429498e-05
8.093263e-06
7.732739e-06
4.995212e-06
-1.86007e-06
2.182816e-05
3.289173e-05
2.524447e-05
2.553935e-05
-1.534456e-05
3.139928e-05
1.569232e-05
-4.604138e-06
7.609926e-06
5.109313e-05
5.224477e-06
6.630124e-06
3.492417e-05
2.606639e-06
1.27031e-05
3.157006e-05
4.480611e-05
4.872479e-05
4.144375e-05
4.222644e-05
4.495871e-05
1.905948e-05
3.18423e-06
2.100165e-05
-1.467174e-05
3.888967e-05
2.639765e-05
9.234333e-07
5.498001e-05
-1.732238e-05
4.402976e-06
1.615015e-05
2.102525e-05
2.324684e-05
1.998857e-05
2.003245e-05
2.620194e-05
2.689833e-05
3.529521e-05
-5.878712e-06
-5.876067e-06
-3.487023e-06
5.729109e-06
-5.616002e-06
-1.34013e-07
2.619e-05
6.651002e-06
1.370674e-05
-2.646222e-06
-7.760847e-07
1.162226e-06
2.519941e-05
3.015785e-05
3.123855e-05
3.018086e-05
2.961053e-05
1.401757e-05
1.599833e-05
-7.491742e-06
-7.796768e-06
2.475546e-05
2.287176e-05
2.313437e-05
2.146805e-05
1.759888e-05
-4.01959e-06
-9.006541e-06
-3.293503e-06
-1.523509e-06
3.242661e-05
3.329786e-05
2.028496e-05
-6.866866e-06
3.208743e-05
2.97339e-05
2.150308e-05
1.703792e-05
2.73353e-05
2.834279e-05
-1.777821e-06
-9.780113e-06
-1.063114e-05
-1.233248e-05
-7.033557e-06
3.589806e-05
-4.983983e-06
-1.164848e-05
-1.498409e-05
4.753291e-05
-9.920867e-06
-1.160161e-05
3.816579e-06
2.665683e-05
2.281062e-05
-5.884372e-06
-1.350352e-05
-7.141237e-06
-1.507255e-06
2.972141e-05
3.028075e-05
2.397615e-05
3.161373e-05
4.929316e-06
3.328993e-06
9.326379e-06
2.665122e-05
4.685922e-05
2.456486e-05
2.606169e-05
2.90836e-05
4.668909e-05
4.258858e-05
3.930654e-05
1.645776e-06
3.778521e-05
4.43311e-05
3.407887e-05
4.754467e-06
2.179901e-05
3.818087e-05
2.220338e-05
3.144828e-05
1.500888e-07
-1.510966e-06
2.268721e-05
2.400996e-05
3.774434e-05
2.13178e-05
1.816467e-05
1.591505e-05
2.153036e-05
1.275047e-06
3.402423e-05
2.441673e-05
4.026173e-05
2.636467e-05
3.829533e-05
2.006144e-06
3.047293e-05
1.228999e-05
4.01106e-05
4.300883e-05
4.846669e-05
4.650593e-05
4.576694e-05
2.986862e-05
2.854266e-05
5.009433e-06
2.590772e-05
-9.497308e-06
1.775653e-05
1.885359e-05
2.917775e-05
2.536741e-05
1.380084e-05
3.238586e-05
-7.766188e-06
-1.069934e-05
2.609758e-05
2.59771e-05
3.658985e-05
1.802552e-05
2.384293e-06
-1.991267e-05
3.950909e-05
3.764412e-05
3.796646e-05
3.645506e-06
4.862058e-05
-1.334589e-06
2.266118e-06
1.228402e-05
9.746887e-06
1.089139e-05
3.321478e-05
-2.429624e-06
-5.95166e-06
-4.092125e-06
1.422324e-05
-1.039865e-05
3.830327e-05
-2.244831e-06
-1.265732e-05
5.968996e-06
4.27564e-05
3.595875e-05
2.952072e-05
1.702616e-05
3.012149e-05
2.985327e-05
1.384268e-05
3.63322e-05
1.740199e-05
4.709146e-05
2.110579e-05
2.341524e-05
2.242478e-05
1.895318e-06
3.578394e-05
3.5533e-05
3.545006e-05
3.971867e-07
-9.359064e-08
-1.544776e-05
3.839983e-05
3.016371e-05
3.978007e-05
4.009675e-05
2.376526e-05
2.188659e-05
1.212467e-05
4.760548e-05
3.857867e-05
2.601366e-05
1.812628e-05
-1.892246e-05
2.440053e-05
4.07218e-05
-2.63489e-05
3.006755e-05
1.829532e-06
4.032148e-06
2.925347e-05
2.617659e-06
2.717349e-05
2.302705e-05
2.768304e-05
1.563983e-05
3.497433e-05
1.101306e-05
5.187363e-05
5.695332e-05
2.90284e-05
3.027357e-05
3.961661e-05
3.059375e-05
4.059332e-05
2.558191e-05
2.422927e-05
3.537159e-05
4.807081e-05
4.863617e-05
4.275111e-06
-3.925741e-06
-1.466432e-05
-1.532842e-05
2.89202e-05
3.67574e-05
3.78037e-05
2.682593e-05
3.624811e-05
5.651957e-05
2.153074e-05
-3.434717e-06
3.412286e-06
-2.251239e-05
1.91598e-05
1.973883e-05
2.841756e-05
8.278107e-06
2.756652e-05
5.755033e-05
3.973825e-05
2.213315e-05
6.846898e-06
1.306952e-06
-9.279945e-06
3.55434e-05
-2.249669e-05
7.003577e-06
2.801738e-05
2.862109e-05
-1.632312e-05
-9.329177e-06
1.361623e-05
-1.879569e-05
3.682299e-05
-1.235016e-05
2.949082e-05
2.348362e-05
2.161526e-05
3.304567e-05
3.435117e-05
2.607599e-05
2.663096e-05
1.893611e-05
1.554748e-05
6.825174e-05
8.965171e-05
1.638152e-05
1.702121e-05
1.239606e-05
2.272706e-05
1.809824e-05
-2.550031e-06
3.406717e-05
-2.33563e-06
5.727952e-06
7.283542e-06
3.526623e-05
2.512056e-05
-1.161033e-05
4.083949e-05
3.090305e-05
5.83603e-06
7.513292e-06
1.054676e-05
-1.377893e-05
3.429211e-05
9.76249e-06
7.288654e-06
-8.315761e-06
-8.846422e-06
3.506005e-05
3.170145e-05
-6.844309e-06
-9.547908e-06
8.600317e-06
8.883688e-06
3.581537e-05
2.546419e-05
2.474442e-05
2.606923e-05
2.49819e-05
3.541936e-06
-4.665928e-06
4.143445e-05
4.073571e-05
4.235233e-05
3.290579e-05
2.707633e-05
2.619571e-05
1.516353e-06
-5.900464e-06
4.565426e-06
3.154529e-06
2.886658e-07
-2.264609e-07
4.494659e-05
5.07686e-05
3.110393e-05
3.058292e-05
3.866877e-06
3.892172e-06
4.934922e-06
1.418702e-05
5.795811e-06
3.679102e-05
-4.652308e-06
1.529278e-05
1.618206e-05
-3.460203e-06
-5.388058e-07
3.337996e-05
-1.028167e-05
2.415932e-05
1.544716e-05
2.354061e-05
-1.156814e-05
1.412299e-05
1.783799e-05
2.03228e-05
-1.016182e-05
-1.421734e-05
-9.90341e-06
1.54374e-05
-7.832072e-06
1.631053e-05
2.047575e-05
-1.591396e-05
2.672578e-05
-5.646643e-06
-6.727945e-06
4.103445e-05
-1.478127e-05
2.229081e-05
2.368249e-05
2.35062e-05
3.688081e-05
3.800695e-05
4.191745e-05
4.329533e-05
2.895801e-05
-4.874757e-06
2.883094e-05
-3.083138e-07
3.488603e-07
-1.536858e-06
6.47492e-05
-1.608068e-05
3.632553e-05
3.222809e-05
-4.08717e-06
4.483853e-05
5.787892e-05
1.622179e-05
1.998144e-05
1.315301e-05
6.051732e-05
2.433782e-05
2.573401e-05
2.328154e-05
3.171146e-05
3.216558e-05
-3.987097e-06
3.780735e-05
3.350305e-06
6.593815e-06
3.866431e-05
8.906612e-06
4.797795e-06
4.258082e-06
3.494973e-05
2.172335e-05
-1.589541e-05
3.417523e-06
1.704344e-05
8.028468e-06
-1.542065e-05
2.401045e-05
3.357285e-05
-1.088773e-05
2.497121e-05
3.388395e-05
3.792762e-05
3.578495e-05
3.076248e-05
4.260856e-05
3.768852e-05
3.823908e-05
5.123232e-05
1.974651e-05
1.300086e-05
2.864119e-05
2.36061e-05
2.64302e-05
3.800156e-05
4.958651e-05
5.190294e-05
-6.261026e-06
3.33497e-05
1.917322e-06
2.417849e-05
4.208897e-05
1.842529e-05
2.505366e-05
2.790158e-05
3.222466e-05
3.336306e-05
2.131176e-05
-1.044475e-05
3.873157e-05
2.630431e-05
3.101823e-05
8.191966e-07
-3.574305e-06
-8.274822e-08
2.307736e-06
2.885307e-05
-2.048528e-07
-1.373504e-05
2.229814e-05
2.262052e-05
1.954739e-05
2.069838e-05
2.419949e-05
-8.656765e-06
2.6296e-05
2.702817e-05
6.323095e-06
-1.344066e-06
3.968725e-05
4.214923e-05
3.886395e-05
3.912112e-05
3.893317e-05
1.652825e-05
2.569033e-06
2.435033e-05
2.074512e-05
-1.308732e-05
5.181523e-06
5.401824e-06
1.213686e-05
2.339601e-05
1.193887e-05
1.246711e-05
3.922259e-05
3.250475e-05
3.234297e-05
3.823463e-05
3.706596e-05
3.269903e-05
3.821107e-05
3.012029e-05
3.710345e-05
3.88421e-05
1.86857e-05
3.81794e-05
2.765999e-05
3.213406e-05
3.601707e-05
3.289358e-05
-9.378225e-06
9.028171e-06
1.380911e-05
-1.829378e-06
6.889658e-05
6.408256e-05
1.822848e-05
-1.948992e-05
2.774499e-05
4.981885e-05
3.412275e-06
2.941042e-05
2.913043e-05
7.07098e-06
8.513898e-06
2.579876e-05
1.709325e-05
2.921369e-05
2.829347e-05
2.180817e-05
4.762511e-06
8.566839e-06
2.416839e-05
2.642207e-05
2.097004e-06
2.782594e-05
1.037146e-05
3.290171e-05
4.572023e-05
8.56983e-06
2.24113e-05
3.989831e-05
2.709405e-06
1.971252e-05
1.425777e-06
1.164622e-05
2.493306e-05
2.814193e-05
3.535312e-05
1.442042e-05
-1.716235e-05
2.562376e-06
-1.430866e-05
2.33876e-05
1.595008e-05
1.255957e-05
1.387463e-05
4.093888e-05
1.87204e-05
3.868813e-05
1.981637e-05
1.177567e-05
-3.310026e-06
-4.803458e-07
4.281653e-05
5.766824e-05
6.690066e-05
2.198407e-05
-8.115205e-06
2.574635e-05
2.666625e-05
1.933908e-05
2.900544e-05
2.873839e-05
-2.706271e-05
2.999819e-05
-1.157996e-05
2.532503e-05
-9.265242e-06
2.296081e-05
1.744066e-06
-8.455219e-06
3.78142e-05
3.183644e-06
6.816386e-06
3.568251e-05
2.21455e-05
3.510107e-06
2.680322e-05
2.583289e-05
3.698685e-05
1.139428e-05
1.016301e-05
9.624664e-06
1.073481e-05
4.412523e-05
4.243075e-05
3.46001e-05
3.662973e-05
3.445603e-05
3.514173e-05
3.404014e-05
2.639765e-05
7.339546e-05
2.830355e-05
1.054881e-05
2.715127e-05
2.706232e-05
-5.385838e-06
-2.043901e-05
3.910776e-06
9.857445e-07
2.260941e-05
5.109759e-05
1.284092e-05
2.447308e-05
4.279569e-05
7.388714e-06
5.693026e-06
-1.103206e-05
2.679237e-05
2.46586e-05
2.357497e-05
2.738807e-05
3.522201e-05
3.642603e-05
6.073158e-05
3.795963e-05
2.145514e-05
4.191001e-05
4.112274e-05
3.209962e-05
3.531067e-05
1.992583e-05
-5.339043e-06
-1.003162e-05
5.115847e-06
6.602582e-05
1.610406e-05
-4.310178e-06
-1.309866e-05
-1.865757e-06
1.787653e-05
1.267015e-05
2.420256e-05
2.716593e-05
-1.173713e-05
5.958e-05
5.656234e-05
2.626009e-05
5.226215e-06
6.207786e-05
3.606034e-05
3.645524e-05
9.100802e-06
1.573895e-06
2.823879e-05
2.886983e-05
3.11166e-05
-1.655026e-05
-1.131062e-05
3.701342e-05
3.731742e-05
-4.447113e-07
3.616418e-05
2.031627e-05
-1.93027e-05
-2.381367e-05
-1.521922e-05
3.170386e-05
-1.698286e-06
-1.46861e-05
-1.556351e-05
3.047132e-05
2.528375e-05
5.833535e-05
1.142923e-05
4.25042e-05
2.489836e-05
1.690067e-05
-6.414207e-06
-9.341943e-07
1.165451e-05
9.589904e-07
2.944431e-05
2.880102e-05
7.158311e-06
1.06366e-05
2.1602e-05
7.525884e-06
4.525483e-05
2.60623e-06
2.816596e-05
3.151544e-05
2.741365e-05
1.452548e-05
-1.142232e-05
-6.814338e-06
3.121758e-05
2.309168e-05
2.261487e-05
2.589406e-05
4.609791e-06
3.291764e-05
-1.078702e-05
1.202091e-05
5.926837e-05
1.602837e-05
5.226297e-05
-6.318144e-06
-3.449881e-07
3.252e-05
-1.68533e-05
-5.589193e-06
4.484343e-06
1.836073e-05
1.936757e-05
4.217106e-05
4.466958e-05
4.291995e-05
4.152321e-05
4.336089e-05
4.175095e-05
4.360655e-05
3.948211e-05
4.248818e-05
-1.346167e-05
-1.427723e-05
-6.664098e-06
-4.796112e-06
4.015748e-05
3.996527e-05
3.942385e-05
4.084207e-05
4.128425e-05
4.04303e-05
-3.912283e-06
-4.320869e-06
-3.136404e-06
-1.119804e-05
-1.309518e-05
2.610609e-05
6.346753e-06
3.416079e-05
-1.999103e-06
-2.55161e-05
5.02058e-05
-8.059948e-06
-7.692618e-06
-1.783175e-05
3.110403e-05
6.794952e-06
7.66414e-06
-4.806077e-06
-3.436476e-06
2.208104e-05
1.902171e-05
1.033771e-05
5.437838e-05
4.488164e-05
2.283136e-05
2.0269e-05
-3.054523e-06
1.367715e-05
2.192075e-05
2.257517e-05
-4.774138e-06
7.388998e-07
3.627931e-05
4.669714e-06
5.58578e-06
-2.077955e-05
-6.31772e-07
-9.418349e-06
8.490539e-06
8.851009e-06
3.131207e-05
2.954362e-05
2.210219e-05
2.220485e-05
1.808085e-05
-6.091832e-06
-7.910095e-06
-5.106931e-06
2.745391e-05
2.819759e-05
2.809718e-05
-1.599028e-05
-2.152485e-06
-1.646062e-06
1.609236e-05
1.040169e-05
4.980617e-05
1.53912e-05
1.388483e-05
1.658841e-05
3.25727e-05
3.994786e-05
4.483639e-05
2.216335e-06
4.486176e-05
2.465064e-05
3.693816e-05
2.414689e-05
1.505359e-05
4.593856e-06
2.525868e-05
4.069048e-05
7.400921e-06
6.371155e-05
6.357801e-05
2.710039e-05
2.754905e-05
3.30147e-05
3.725692e-05
1.030813e-06
2.20741e-06
3.518736e-06
2.346981e-05
3.890574e-05
3.592747e-05
3.455611e-05
-8.666166e-06
2.771144e-07
7.802247e-07
6.024115e-06
2.606377e-07
3.146162e-05
3.228631e-05
2.598353e-05
2.617343e-05
3.471462e-06
3.856745e-06
-2.957575e-06
1.228932e-05
1.298875e-05
5.639034e-06
3.47846e-05
-2.196869e-06
-1.557464e-06
2.215199e-05
2.188177e-05
2.71988e-05
2.13877e-05
2.165616e-05
2.513881e-05
2.551685e-05
2.787617e-05
2.177024e-05
1.928498e-05
2.883902e-05
3.924548e-05
3.41446e-05
2.57084e-05
3.78794e-06
2.801672e-05
2.478041e-06
3.786747e-06
1.21646e-05
2.532103e-05
2.332349e-05
2.447288e-05
2.476453e-05
2.269503e-05
3.381141e-05
8.49744e-06
3.102073e-05
3.911148e-05
-1.953959e-05
2.309162e-05
2.271555e-05
2.22813e-05
1.606782e-05
1.589179e-05
-1.631018e-05
2.194819e-05
-8.458992e-06
2.412362e-05
-1.582033e-06
2.687599e-05
1.878712e-05
3.891159e-05
3.868353e-05
2.942642e-05
-8.478372e-07
-1.96703e-06
1.336185e-05
6.507191e-06
1.798304e-05
2.48715e-05
3.284187e-05
3.271222e-05
3.21192e-05
4.398893e-06
1.064007e-05
-1.018534e-05
3.817232e-05
3.833046e-05
2.695088e-05
2.531604e-05
7.777844e-06
-1.19664e-06
9.958051e-06
1.165931e-05
2.913139e-05
-3.443626e-05
3.004102e-05
3.001626e-05
4.711569e-05
4.697225e-05
3.261133e-05
-2.016271e-06
-2.240779e-07
-1.097452e-05
1.837649e-05
1.839894e-05
3.134992e-05
5.310569e-05
-4.48405e-06
2.308222e-05
3.854553e-06
3.212302e-05
-4.332091e-07
-5.049369e-07
1.57858e-05
2.029578e-05
4.21666e-05
2.671309e-05
-2.141625e-05
-2.113779e-05
3.97516e-05
6.058666e-05
2.660109e-05
-2.107585e-05
-1.603036e-05
3.203158e-05
3.566551e-05
3.355444e-05
3.19274e-05
3.664492e-05
3.592442e-05
3.713158e-05
3.695481e-05
3.406968e-05
3.386224e-05
2.184233e-05
2.497615e-05
2.388367e-05
2.267207e-05
3.618851e-05
3.336451e-05
3.43795e-05
-4.035306e-07
3.54451e-05
2.631956e-05
2.067393e-05
2.071196e-05
2.366893e-05
2.265313e-05
2.791367e-07
-9.397428e-06
1.516383e-05
4.003184e-05
3.714774e-05
-1.361208e-05
3.668038e-05
3.637754e-05
3.84917e-05
3.586246e-05
-3.189774e-06
4.173965e-05
-1.032897e-06
1.24946e-06
3.35537e-05
3.956939e-05
3.770186e-05
3.78999e-05
3.653564e-05
2.158487e-05
4.90919e-05
6.111116e-05
9.016458e-06
9.941495e-06
5.200073e-06
1.629722e-05
1.870738e-05
1.913792e-05
4.790479e-05
2.146004e-05
2.311507e-07
2.579982e-05
2.82562e-05
1.087158e-05
3.257806e-05
3.323986e-05
3.638009e-05
2.655284e-06
2.77097e-05
2.687079e-05
-4.729168e-06
5.08323e-06
2.278418e-05
2.358706e-05
-6.862368e-07
6.305402e-05
1.034046e-05
1.021414e-05
9.305551e-06
1.014503e-05
4.842333e-05
5.355929e-05
4.412806e-05
2.276827e-05
-4.594998e-06
2.478194e-05
-1.272461e-05
-1.368575e-05
-4.829051e-07
3.856407e-05
2.490317e-05
-5.863154e-06
2.351441e-05
2.521497e-05
-5.81692e-07
8.568543e-06
-1.166609e-05
-9.822587e-06
3.170975e-05
2.618162e-06
3.21212e-06
2.251949e-05
2.523791e-05
9.613402e-06
4.638228e-05
3.190723e-05
3.249901e-05
6.3465e-05
5.322496e-05
2.144317e-05
1.589136e-05
-1.353249e-05
2.745732e-05
3.544291e-05
3.541854e-05
-2.18344e-05
2.1029e-06
3.115068e-05
3.087073e-05
-4.894407e-06
-3.470124e-06
6.617164e-05
1.9985e-05
1.904494e-05
1.231837e-05
-1.165376e-06
1.400933e-05
-1.535883e-05
2.649422e-07
2.62914e-05
2.297063e-05
4.680465e-06
2.031186e-05
2.107318e-06
2.195714e-06
4.332679e-05
4.285289e-05
2.295771e-05
3.537055e-05
3.55383e-05
2.311278e-05
1.835127e-05
2.3932e-05
2.373878e-05
-1.265421e-06
2.720369e-05
3.064719e-05
4.253135e-05
3.229474e-05
1.088928e-05
1.070668e-05
3.728154e-05
3.541906e-05
-3.846799e-06
-4.53277e-06
1.804355e-06
1.232929e-05
9.965517e-06
1.442477e-05
1.560402e-05
5.575161e-05
2.753086e-05
-2.054894e-05
1.815794e-05
1.639407e-05
1.635794e-05
-1.637005e-06
2.198951e-05
1.550714e-05
4.356081e-05
4.189249e-05
5.756021e-06
1.272954e-05
1.372021e-05
4.250969e-05
3.503579e-05
3.343462e-05
3.326863e-05
-1.424519e-05
3.773774e-05
3.987006e-05
1.776009e-05
2.862987e-05
2.788278e-05
3.628059e-05
3.552975e-05
2.150797e-05
4.175867e-05
4.176198e-05
4.549395e-05
4.185756e-05
4.338569e-05
4.305654e-05
3.708477e-05
4.723965e-05
2.750071e-05
-5.049464e-06
3.819901e-05
-4.074702e-06
-5.874034e-06
2.611856e-05
2.299953e-05
9.4541e-06
9.216127e-06
5.152714e-07
2.87839e-06
4.009228e-05
-6.90457e-06
2.112538e-05
-9.278645e-06
7.663171e-09
3.665376e-05
-6.153793e-06
2.563969e-05
2.602636e-05
3.420736e-05
7.993824e-06
2.847084e-05
3.522818e-05
7.161979e-06
3.20652e-05
2.412594e-05
1.327291e-05
-1.694555e-05
-1.613372e-05
2.514409e-05
2.515887e-05
4.461713e-05
2.107892e-06
4.716328e-05
6.084051e-05
1.22675e-05
3.303267e-05
3.33122e-05
4.627025e-05
1.595623e-05
1.935695e-05
4.620065e-05
4.559115e-05
2.814476e-05
6.585654e-06
4.840454e-06
2.570982e-07
2.431883e-07
6.291799e-06
2.951551e-06
8.969061e-06
-1.48285e-05
1.476085e-06
1.159378e-06
3.875317e-05
5.763431e-06
4.157943e-06
-4.486441e-06
-2.332007e-05
1.646043e-05
5.344265e-06
3.832527e-05
2.485275e-05
2.328195e-05
2.270931e-05
4.579607e-05
5.951297e-06
6.132489e-05
1.489808e-05
2.504864e-05
3.783441e-05
3.15213e-05
-2.450518e-06
2.003025e-05
-7.368612e-06
2.514757e-05
3.919533e-05
1.091302e-05
1.125436e-05
-5.781936e-06
2.490631e-05
3.047242e-05
-8.14984e-06
2.344338e-05
2.262627e-05
5.037718e-06
5.322919e-06
6.263798e-06
2.348452e-05
2.345507e-05
2.977329e-05
4.632119e-05
4.672585e-05
2.871457e-05
-7.860113e-06
3.60358e-05
2.066238e-05
1.995115e-05
3.302885e-05
3.292328e-05
9.684485e-06
3.785844e-06
-7.144961e-06
-6.846627e-06
-4.326601e-06
2.375697e-05
2.485686e-05
3.163591e-06
3.452609e-05
3.50523e-05
3.018447e-05
3.536854e-05
3.4117e-05
3.714797e-05
3.541044e-05
2.244133e-05
3.140436e-05
3.052381e-05
4.351348e-05
5.103891e-05
5.556887e-05
2.790835e-05
-1.210799e-06
-1.487735e-06
5.60018e-05
6.886896e-06
6.613263e-06
-8.897265e-06
3.001833e-05
6.223587e-05
3.676804e-05
3.669451e-05
-1.214751e-07
3.264064e-05
3.407903e-05
-2.021774e-06
-7.463288e-06
3.113819e-05
1.879406e-05
3.543602e-05
2.355628e-05
2.311855e-05
4.15301e-06
2.830768e-05
3.530895e-05
3.435365e-05
-1.628235e-05
-1.201434e-05
8.352971e-06
8.083051e-06
3.831857e-05
3.827869e-05
8.675174e-06
4.235759e-05
1.044037e-05
9.658028e-06
1.09515e-05
1.032738e-05
-1.455153e-05
1.636568e-05
2.524413e-05
5.424877e-05
5.239875e-05
2.716926e-05
2.675903e-05
3.53568e-06
5.11745e-06
4.849505e-05
4.887604e-05
-9.34955e-06
3.520622e-05
2.636931e-05
2.563895e-05
2.636113e-05
2.664081e-05
-5.755368e-06
-1.755531e-06
4.337026e-06
6.992727e-06
-1.030444e-05
-7.394935e-06
-1.303771e-05
1.668143e-05
1.402456e-05
9.634254e-06
1.757339e-05
3.684637e-05
3.744838e-05
2.273413e-05
8.456715e-06
4.482126e-05
3.840362e-05
4.704186e-05
1.865742e-05
2.950251e-06
2.885916e-06
4.937547e-05
4.818569e-05
2.376389e-05
2.39938e-05
3.218331e-05
-1.972216e-05
-1.905697e-05
3.512512e-05
3.598336e-05
5.07672e-05
2.994494e-05
3.015767e-05
5.863499e-05
5.833181e-05
5.631107e-05
5.724504e-05
7.103147e-05
-2.181577e-05
1.954576e-05
1.743997e-05
2.412927e-06
-5.585896e-06
-1.648616e-06
1.415183e-06
-8.242153e-06
2.872272e-05
2.684133e-05
-1.502065e-05
5.192671e-06
3.461332e-05
3.027033e-05
1.281993e-05
8.318949e-06
3.222487e-05
-3.23852e-06
2.992007e-05
-1.370444e-05
-1.251714e-05
7.885444e-06
-4.109419e-06
2.500591e-05
-9.807388e-06
-1.425757e-05
7.523299e-06
-6.587649e-06
-6.241202e-06
1.263747e-06
7.273641e-09
-9.721369e-07
-3.462715e-06
1.169501e-05
1.260187e-05
2.22311e-05
-1.67395e-07
-2.536732e-07
6.263857e-06
3.738494e-05
3.927811e-05
3.962327e-05
3.894584e-05
1.291095e-05
1.313341e-05
7.220309e-06
5.840583e-06
-4.470135e-06
-5.775994e-06
-8.57438e-06
-6.818177e-06
-7.042249e-06
-7.889547e-06
2.013711e-05
2.343707e-05