/*--------------------------------*- C++ -*----------------------------------*\
| =========                 |                                                 |
| \\      /  F ield         | OpenFOAM: The Open Source CFD Toolbox           |
|  \\    /   O peration     | Version:  2406                                  |
|   \\  /    A nd           | Website:  www.openfoam.com                      |
|    \\/     M anipulation  |                                                 |
\*---------------------------------------------------------------------------*/
FoamFile
{
    version     2.0;
    format      ascii;
    arch        "LSB;label=32;scalar=64";
    class       surfaceScalarField;
    location    "0.5";
    object      phi;
}
// * * * * * * * * * * * * * * * * * * * * * * * * * * * * * * * * * * * * * //

dimensions      [0 3 -1 0 0 0 0];

oriented        oriented;

internalField   nonuniform List<scalar> 
6741
(
4.240334e-10
9.095966e-10
-1.33363e-09
-1.245613e-09
-4.084728e-11
1.286461e-09
1.741244e-09
-1.766925e-09
2.568187e-11
5.393414e-10
6.816081e-10
-1.22095e-09
1.538324e-09
-8.24632e-10
-7.136919e-10
1.991865e-09
-8.416256e-10
-1.15024e-09
-1.225004e-09
-1.922592e-10
1.417264e-09
-9.379193e-10
1.837107e-09
-8.991878e-10
2.995442e-11
2.103514e-09
-2.133468e-09
-1.533058e-09
3.631666e-10
1.169892e-09
-1.22972e-10
1.894648e-09
-1.771676e-09
1.374029e-09
-2.019029e-09
6.45e-10
1.310476e-09
-1.862577e-09
5.521009e-10
1.862658e-09
-1.625169e-09
-2.374897e-10
-1.598408e-10
1.461503e-09
-1.301662e-09
3.48602e-09
-2.136909e-09
-1.349112e-09
-8.24807e-10
-6.315132e-10
1.45632e-09
1.292019e-09
-1.522268e-09
2.30249e-10
1.878613e-09
-1.750085e-09
6.798958e-10
-1.559582e-09
8.796862e-10
-2.363067e-09
1.243922e-09
1.119145e-09
3.959989e-10
-1.340867e-09
9.44868e-10
-1.736173e-09
1.484749e-09
2.514235e-10
3.665882e-10
1.544607e-09
-1.911195e-09
3.117231e-10
1.461344e-09
-1.773067e-09
1.664339e-09
-1.469595e-09
-1.947441e-10
1.81195e-09
-1.077341e-09
-7.346081e-10
-2.067545e-09
1.180388e-09
8.871567e-10
-1.180729e-09
1.311331e-09
-1.306015e-10
-4.974003e-09
6.93348e-10
4.280655e-09
-2.15769e-09
9.366515e-10
1.221038e-09
-1.574856e-09
1.193859e-09
3.809977e-10
1.714919e-09
-9.256927e-10
-7.892267e-10
2.855714e-09
-3.004398e-10
-2.555274e-09
4.255632e-09
1.992524e-09
-6.248156e-09
-1.310715e-09
1.600868e-09
-2.901528e-10
-1.513929e-09
-2.310544e-10
1.744983e-09
4.814168e-09
2.337015e-09
-7.151183e-09
1.771306e-09
-6.411242e-10
-1.130182e-09
-1.523507e-09
1.933376e-09
-4.098688e-10
1.422634e-09
7.748937e-10
-2.197527e-09
-8.802828e-10
-1.250769e-09
2.131052e-09
1.468848e-09
-2.42044e-10
-1.226804e-09
9.947002e-10
-1.50086e-09
5.061594e-10
-1.790038e-09
1.054417e-09
7.356214e-10
-1.217599e-09
4.413687e-10
7.762303e-10
-7.590429e-10
-1.05848e-09
1.817523e-09
-2.686338e-10
-1.536036e-09
1.80467e-09
-5.792216e-10
-1.38936e-09
1.968582e-09
6.368958e-10
1.194352e-09
-1.831248e-09
-1.498074e-09
1.5998e-09
-1.017259e-10
-1.280631e-09
4.370582e-10
8.435731e-10
1.390353e-09
-1.989781e-10
-1.191375e-09
1.936924e-09
-4.300057e-10
-1.506918e-09
-1.318531e-10
1.235342e-09
-1.103489e-09
4.397333e-10
1.343501e-09
-1.783235e-09
-1.618866e-09
1.431723e-09
1.871428e-10
-3.09318e-10
-1.584579e-09
1.893897e-09
-1.077203e-09
1.757992e-09
-6.807893e-10
5.596778e-10
-1.744384e-09
1.184706e-09
-7.665814e-10
-4.846071e-10
1.251189e-09
-1.492764e-09
1.165831e-09
3.269328e-10
-1.449557e-09
1.559304e-09
-1.097469e-10
3.582835e-10
1.471569e-09
-1.829852e-09
-2.396688e-09
1.151072e-09
1.245616e-09
1.550197e-09
-1.261488e-09
-2.88709e-10
-1.751833e-09
1.43919e-09
3.126433e-10
5.917751e-10
9.7809e-10
-1.569865e-09
6.792194e-09
-7.274927e-09
4.827327e-10
-2.022769e-09
4.444186e-10
1.57835e-09
5.535626e-10
-2.093453e-09
1.539891e-09
1.322001e-09
-1.588728e-09
2.667261e-10
1.514738e-09
-2.518242e-10
-1.262914e-09
1.378325e-09
-1.82081e-09
4.424855e-10
5.131589e-09
1.064342e-09
-6.195931e-09
-1.300301e-09
-4.495465e-11
1.345256e-09
2.22995e-09
-8.519519e-10
-1.377998e-09
1.60063e-09
-1.336027e-10
-1.467027e-09
-1.45598e-09
-3.308024e-10
1.786782e-09
1.929668e-09
-2.185866e-09
2.561976e-10
4.990906e-10
1.237512e-09
-1.736603e-09
1.03077e-09
-1.137537e-09
1.067666e-10
-7.851396e-10
-1.297158e-10
-1.54958e-09
-3.544131e-10
1.903993e-09
-1.606688e-09
1.17316e-09
4.33528e-10
-6.524301e-10
2.263478e-09
-1.611048e-09
9.284363e-10
-1.698043e-09
7.696068e-10
5.105121e-10
2.557927e-09
-3.068439e-09
-6.627641e-10
-1.09115e-09
1.753914e-09
8.027433e-10
-1.511781e-09
7.090381e-10
1.766046e-10
-1.445858e-09
1.269253e-09
1.261746e-09
3.315541e-10
-1.5933e-09
-3.064653e-10
2.006182e-09
-1.699717e-09
3.653497e-11
-1.795006e-09
1.758471e-09
-9.298147e-10
1.591173e-09
-6.613587e-10
-3.432109e-11
-2.924191e-09
2.958512e-09
8.33585e-10
-1.956318e-09
1.122733e-09
-1.049797e-10
1.228273e-09
-1.123293e-09
-1.196719e-09
-2.088027e-11
-6.433339e-09
4.136742e-09
2.296597e-09
1.152132e-09
-6.127903e-10
1.468927e-09
-1.869688e-09
4.007612e-10
-3.127665e-09
-7.330251e-11
3.200968e-09
-2.35713e-09
-3.084236e-09
5.441367e-09
3.964497e-10
-1.946029e-09
2.005981e-10
1.429288e-09
-1.629887e-09
-1.99321e-09
1.388186e-09
6.050236e-10
-2.227811e-09
6.777216e-10
-4.307621e-10
2.058585e-09
-1.627823e-09
1.17637e-09
-1.616858e-09
4.404881e-10
9.966994e-10
-7.610971e-10
-2.356022e-10
-1.955867e-09
1.13106e-09
-7.660879e-10
-7.142897e-10
1.480378e-09
-1.079261e-09
1.621903e-09
-5.426421e-10
1.108344e-09
9.580088e-12
-1.117924e-09
1.849539e-09
-3.348008e-10
-1.422997e-09
1.387859e-10
1.284212e-09
-1.952155e-09
9.553576e-10
9.967971e-10
-1.606156e-09
-5.77586e-11
1.663915e-09
-2.517491e-09
2.640435e-09
-1.229439e-10
-1.073977e-09
-1.315196e-10
1.205497e-09
3.40591e-09
1.023923e-09
-4.429832e-09
1.801293e-09
-1.441531e-09
-3.597624e-10
-1.132745e-09
-6.572933e-10
1.039737e-09
-1.442371e-09
4.026341e-10
-1.004181e-09
-6.721884e-10
1.67637e-09
3.030734e-09
-3.185081e-09
1.543469e-10
-3.134957e-09
5.028506e-10
2.632106e-09
-1.769612e-09
1.676193e-09
9.341905e-11
2.135476e-09
-3.74451e-10
-1.761025e-09
-6.791568e-11
-1.13977e-09
1.207686e-09
-1.472961e-09
-5.902629e-10
2.063224e-09
4.45259e-10
1.077271e-09
-1.52253e-09
2.466013e-09
-2.204856e-09
-2.61157e-10
-1.55177e-09
8.731644e-10
6.786059e-10
1.572176e-09
-2.394583e-09
8.224069e-10
-1.783564e-09
1.370521e-09
4.130435e-10
-1.633705e-09
1.302447e-09
3.312583e-10
-8.704761e-10
-1.197069e-09
5.044388e-11
-2.763871e-09
2.713427e-09
3.511121e-09
-5.868252e-09
5.412679e-11
-1.780079e-09
1.725952e-09
9.828754e-10
-1.669056e-09
6.861803e-10
-1.129002e-09
-4.040564e-10
-1.222038e-09
2.340326e-09
-1.118288e-09
-1.779054e-09
2.338732e-09
-6.505471e-10
-1.047852e-09
1.698399e-09
1.187878e-09
-1.146558e-09
-4.132021e-11
-1.381395e-09
1.276415e-09
-7.469651e-10
-4.794019e-10
1.226367e-09
1.224056e-09
-1.043458e-09
-1.805989e-10
-2.681409e-09
1.167481e-09
-2.004366e-09
-1.225502e-10
2.126917e-09
4.224249e-09
-1.201441e-09
-3.022808e-09
1.035371e-09
8.097503e-10
-1.845121e-09
-3.160184e-11
-1.006344e-09
1.037946e-09
1.953671e-09
-1.209549e-09
-7.441221e-10
1.508934e-09
-9.757919e-11
-1.411354e-09
5.267e-10
-1.962019e-09
1.435319e-09
1.773498e-09
-2.514437e-09
7.409391e-10
2.181533e-09
-1.82666e-09
-3.548733e-10
-1.928875e-09
6.743043e-09
1.997966e-09
-1.484264e-10
-7.650323e-10
1.545786e-09
-7.807542e-10
9.684911e-10
-1.1374e-09
-3.223343e-09
2.474603e-10
2.975882e-09
3.103786e-10
1.346676e-09
-1.657055e-09
1.571339e-09
5.61658e-10
-2.132997e-09
1.189334e-09
3.814609e-10
-1.570795e-09
8.651748e-10
6.023483e-10
-1.467523e-09
-1.941413e-09
5.81495e-10
1.359918e-09
3.029137e-09
-2.046802e-09
-9.823351e-10
7.735227e-09
-3.479595e-09
-8.678995e-10
6.491419e-10
1.51198e-09
-2.161122e-09
-4.230546e-10
-8.782368e-10
1.301291e-09
-1.909026e-09
1.670156e-09
2.388708e-10
-8.457924e-10
1.868179e-09
-1.022387e-09
-1.079705e-09
1.366949e-09
-2.872441e-10
-7.155538e-10
-1.271055e-09
1.986608e-09
-3.281733e-10
-1.350388e-09
1.678561e-09
2.058242e-09
-5.604949e-10
-1.497747e-09
-5.136483e-10
-8.136098e-10
1.327258e-09
-3.446071e-09
3.25538e-09
1.906905e-10
-1.006712e-09
1.876012e-09
-8.692997e-10
-2.538291e-10
-7.045606e-10
9.583897e-10
1.20311e-09
5.981832e-10
1.775005e-09
-1.125864e-09
-3.388613e-10
-1.067227e-09
1.406088e-09
1.671252e-09
-7.428152e-10
3.31464e-10
-1.804425e-09
-4.96966e-12
-1.17576e-09
7.073811e-10
-2.426528e-09
1.719147e-09
-1.468362e-09
-4.339238e-10
-1.261081e-09
-5.933184e-10
1.854399e-09
-1.606552e-09
5.314202e-10
1.075131e-09
-5.067826e-10
1.232906e-09
-7.261239e-10
-1.568456e-09
1.000955e-09
5.675016e-10
-1.125639e-09
-4.358921e-10
1.561531e-09
5.328475e-10
-2.013075e-09
1.480228e-09
8.491757e-10
5.819618e-10
-1.431137e-09
2.109014e-10
-1.703665e-09
1.726625e-09
-5.423501e-10
-1.184275e-09
-1.008005e-09
1.915425e-09
-9.074208e-10
5.126013e-09
-2.184871e-09
-2.941142e-09
-1.904077e-09
1.605236e-09
2.988406e-10
-7.785674e-10
1.574232e-09
-7.956645e-10
1.580257e-09
-1.944081e-09
3.638235e-10
1.672772e-09
-2.921438e-10
-1.380628e-09
-3.877057e-10
1.149949e-09
-7.622436e-10
-1.234494e-09
1.571993e-09
-3.374995e-10
-5.071718e-09
7.741393e-09
-2.669674e-09
-5.253046e-12
1.762243e-09
-1.75699e-09
4.828575e-10
-1.478273e-09
9.954151e-10
1.051705e-09
7.535621e-10
-1.805267e-09
-8.547252e-10
-1.360862e-09
2.215587e-09
1.516753e-10
-1.601232e-09
2.217533e-09
-5.46438e-11
-2.162889e-09
-1.44733e-10
-1.461423e-09
1.155298e-09
4.94751e-10
-1.650049e-09
-1.76132e-09
1.623011e-09
1.383088e-10
-1.819515e-09
-5.328366e-10
2.352351e-09
-1.300756e-10
1.933208e-09
-1.803132e-09
2.179772e-09
-4.583056e-10
-1.721466e-09
-1.520299e-09
1.56186e-09
-4.156121e-11
-1.673839e-09
6.455707e-10
1.028268e-09
2.148598e-09
-5.836782e-10
-1.56492e-09
-1.073834e-09
-3.922189e-10
1.466052e-09
-1.433424e-09
-1.736186e-10
1.607043e-09
3.600438e-10
-1.423114e-09
1.06307e-09
1.584808e-09
-1.512855e-09
-7.195275e-11
1.344159e-10
1.424888e-09
2.101575e-09
-2.630133e-09
5.285574e-10
9.794871e-10
-1.705609e-09
7.261217e-10
1.779761e-09
-1.9115e-09
1.317396e-10
-7.780638e-10
1.74601e-09
-9.679463e-10
1.40346e-09
-6.915136e-10
-7.11946e-10
-1.30724e-09
1.549285e-09
-2.420457e-10
1.134925e-09
-5.904453e-11
-1.07588e-09
6.276087e-10
1.758417e-09
-2.386025e-09
1.28781e-09
-1.677478e-09
3.896673e-10
6.36255e-11
-1.387203e-09
1.323578e-09
3.394133e-09
-2.748439e-09
-6.456935e-10
1.378661e-09
2.478826e-11
-1.403449e-09
8.707754e-10
6.675485e-10
1.941719e-09
-9.836487e-09
7.894768e-09
-8.463951e-10
-2.463246e-09
3.309641e-09
2.971375e-10
-8.282619e-09
7.985481e-09
1.769242e-09
-1.719478e-09
-4.976389e-11
5.086877e-10
5.872204e-09
-6.380891e-09
2.091744e-09
-2.107143e-09
1.53985e-11
-1.520209e-09
-6.407781e-11
1.584287e-09
7.664287e-10
-1.243891e-09
4.774627e-10
1.046202e-09
-3.619808e-10
-6.842208e-10
-1.373636e-09
1.437262e-09
1.376425e-09
-5.625709e-10
-8.138541e-10
1.272435e-09
4.556707e-10
-1.728106e-09
-9.029552e-10
1.752131e-09
1.600591e-09
-8.911449e-10
-7.09446e-10
1.640607e-09
-7.060082e-10
-9.345987e-10
1.953717e-09
-1.111925e-09
-8.417923e-10
1.493975e-09
-1.036554e-09
-4.574205e-10
1.442112e-09
-1.410374e-09
-3.173878e-11
1.903679e-10
-1.212353e-09
1.021985e-09
7.670257e-10
2.296737e-10
-1.50874e-10
-1.585299e-09
-4.674358e-10
-8.103186e-09
8.570622e-09
-1.589044e-09
2.281184e-09
-6.921397e-10
1.60999e-09
-1.30122e-09
-3.087698e-10
1.11808e-09
4.994541e-10
-1.617534e-09
2.000792e-09
-2.595486e-10
-3.16765e-10
-2.009346e-09
2.326111e-09
7.175216e-10
6.074421e-10
-1.324964e-09
6.805108e-10
1.191907e-09
-1.872418e-09
-1.500672e-09
-1.206076e-10
1.621279e-09
-9.868523e-10
9.477927e-09
-8.491075e-09
-9.802516e-11
1.72094e-09
-1.622915e-09
-2.939854e-09
2.212659e-09
7.271952e-10
-8.649058e-10
2.012317e-09
-1.147412e-09
1.491564e-09
-9.200836e-10
-5.714801e-10
1.243038e-09
-1.51397e-09
2.709321e-10
1.384458e-09
-1.19741e-09
-1.870484e-10
-1.422131e-09
6.511229e-10
7.710081e-10
-1.921701e-09
-1.451093e-09
3.372794e-09
1.367135e-09
1.059037e-10
-1.473039e-09
-1.503681e-09
-2.576396e-10
6.629419e-10
-2.013035e-09
1.350093e-09
8.976479e-10
5.78207e-11
-9.554686e-10
3.901261e-09
-2.784588e-09
-1.116673e-09
-3.473517e-10
1.671199e-09
-1.323847e-09
-9.028183e-10
2.065988e-09
-1.163169e-09
2.121698e-09
-3.7417e-10
1.57813e-09
-1.20396e-09
1.955271e-10
-1.263501e-09
1.067974e-09
1.83291e-09
-2.450909e-10
-1.587819e-09
1.309755e-09
5.672659e-10
-1.87702e-09
1.030845e-09
5.193518e-10
-8.524185e-10
1.835294e-09
8.055809e-11
1.771012e-09
-1.85157e-09
1.877768e-09
-6.973799e-10
-4.064085e-10
-1.67747e-09
2.083878e-09
4.66397e-10
-1.80473e-09
1.338333e-09
-2.358596e-09
6.006215e-10
1.757974e-09
-4.211069e-10
1.672814e-09
-1.251707e-09
-9.575229e-10
1.135683e-09
-1.781603e-10
1.379234e-10
1.061393e-09
-1.199316e-09
-1.276379e-09
6.934738e-10
5.829049e-10
2.255961e-09
-4.466335e-09
2.210374e-09
-1.569931e-09
1.723297e-09
-1.533656e-10
4.331345e-10
-1.613217e-09
1.180083e-09
-1.015775e-09
1.908889e-09
-8.931144e-10
-4.810546e-10
-1.138895e-09
1.619949e-09
6.006019e-10
-1.706305e-09
1.105703e-09
-1.916795e-09
1.345672e-09
5.711235e-10
1.989799e-09
-1.07027e-09
-9.195291e-10
-4.72052e-10
-9.08236e-10
1.380288e-09
-5.43672e-11
-1.41206e-09
1.466428e-09
-1.679027e-09
-1.284943e-09
2.96397e-09
5.802433e-10
-1.510058e-09
1.149276e-09
8.229119e-10
-1.972188e-09
-2.468961e-09
-6.298559e-10
3.098817e-09
9.1507e-10
5.789048e-10
-6.492447e-10
-7.72163e-10
1.421408e-09
-9.052808e-10
-8.8904e-10
1.794321e-09
1.061471e-09
7.51435e-10
-1.812906e-09
-1.068913e-09
-4.737869e-10
-1.31813e-09
1.791917e-09
-1.151457e-09
1.803963e-09
-6.525061e-10
-1.573793e-09
7.033164e-10
-3.767531e-10
2.33909e-09
-1.962337e-09
1.692873e-09
-1.003788e-09
-6.890848e-10
2.402048e-09
-5.662336e-10
-1.835814e-09
1.106726e-10
-1.56781e-09
1.457137e-09
1.043416e-09
-2.081495e-09
1.038079e-09
8.964699e-10
5.2912e-10
-1.42559e-09
5.207331e-10
-2.147721e-09
1.626988e-09
-1.480506e-09
1.751792e-09
-2.712857e-10
1.55648e-09
-3.342832e-10
-1.222197e-09
1.345407e-09
-1.114257e-09
-2.311498e-10
1.232323e-09
9.541423e-11
-1.327737e-09
-1.176221e-09
-5.244812e-10
1.700702e-09
-1.049195e-09
-4.885786e-10
1.537774e-09
-1.570906e-09
-7.8769e-10
6.714169e-10
-1.930904e-09
1.259488e-09
2.553569e-10
-1.785105e-09
1.529748e-09
-1.499756e-09
5.225139e-10
9.772425e-10
8.045359e-10
-1.650328e-09
2.318426e-09
-2.117424e-09
-2.01002e-10
-2.175338e-10
-1.398686e-09
1.61622e-09
1.824455e-09
-1.547914e-09
-2.765406e-10
-3.331412e-10
-1.477107e-09
1.810248e-09
-2.211659e-10
-3.17103e-09
3.392196e-09
2.036182e-09
-1.328801e-09
-1.303157e-09
3.95393e-09
-2.650772e-09
-4.313665e-09
1.04004e-09
3.273625e-09
-1.719973e-09
1.28199e-09
4.379831e-10
-1.493286e-09
1.191444e-09
3.018418e-10
9.691411e-10
-1.475924e-09
1.593281e-09
-2.029282e-10
7.309067e-10
9.957346e-10
-1.726641e-09
-1.717024e-09
1.369672e-09
1.089397e-09
-2.311435e-09
1.245239e-09
-7.413703e-10
-5.038688e-10
7.071555e-10
-1.112202e-09
4.050462e-10
-2.193236e-09
1.407143e-09
7.860931e-10
-2.972821e-10
1.076293e-09
-7.790112e-10
-2.152461e-09
5.634166e-10
-3.618631e-11
1.379905e-09
-1.343719e-09
6.742144e-09
-4.800425e-09
-5.421082e-09
-8.131794e-10
6.234261e-09
1.058678e-09
-8.369927e-10
-2.216853e-10
-5.829726e-11
1.166641e-09
-1.787951e-09
2.230434e-09
-4.424831e-10
8.655098e-10
6.561644e-10
-1.521674e-09
-3.009177e-09
1.754259e-09
1.254918e-09
2.968367e-10
-1.799166e-09
1.50233e-09
6.905606e-10
8.337364e-10
-1.524297e-09
-1.618865e-09
1.062523e-10
1.512613e-09
-1.275568e-10
-1.447862e-09
1.575419e-09
1.029857e-10
-1.70879e-09
1.605804e-09
1.753259e-09
-1.320124e-09
3.745814e-11
-1.544856e-09
1.507398e-09
9.697226e-10
-2.238438e-09
1.268715e-09
4.609247e-10
-1.569229e-09
1.108305e-09
-9.455626e-10
2.002393e-09
-1.056831e-09
-1.906198e-09
3.142806e-11
1.87477e-09
1.914787e-09
2.667461e-10
1.253891e-09
1.159091e-10
-1.3698e-09
1.312995e-09
-6.08382e-10
-7.04613e-10
-7.984628e-10
-4.591564e-10
1.257619e-09
1.233418e-09
-1.972069e-09
7.386515e-10
2.271483e-11
2.909695e-09
-2.93241e-09
1.936668e-09
-4.153113e-10
-1.521357e-09
1.200723e-09
-2.070878e-09
8.701551e-10
1.5855e-09
5.033216e-10
-2.088822e-09
2.088336e-09
-1.305944e-09
-7.823916e-10
1.269403e-09
3.096973e-10
-1.5791e-09
-6.213115e-10
1.778966e-09
-1.157654e-09
-1.390011e-09
9.538226e-10
4.361881e-10
-8.184256e-10
1.872843e-09
2.06713e-09
-1.03176e-09
-1.479341e-09
9.877605e-10
4.915803e-10
-8.37265e-11
-1.223759e-09
1.307485e-09
-1.405763e-09
1.293169e-09
1.12594e-10
7.07687e-10
-2.154195e-09
1.446508e-09
-2.500817e-11
1.695517e-09
-1.670509e-09
1.284368e-09
-1.158517e-09
-1.258515e-10
1.466231e-10
2.033149e-09
1.965876e-09
-1.482373e-09
-4.835032e-10
-2.858058e-09
4.63443e-09
-1.776372e-09
-5.187137e-10
-1.590734e-09
2.109447e-09
2.345409e-09
-1.102033e-09
-1.243376e-09
9.872659e-10
-1.674382e-09
6.871158e-10
1.805134e-09
-9.401892e-10
-8.649444e-10
-1.892877e-09
2.077881e-09
-1.850042e-10
-9.785493e-10
1.564851e-09
4.771338e-10
-2.041985e-09
1.169189e-09
6.718399e-10
-1.841029e-09
-1.465745e-09
1.607009e-09
-1.412643e-10
7.062429e-10
-1.017565e-09
3.113216e-10
-1.823486e-09
2.917119e-10
1.531774e-09
7.416973e-10
-1.86336e-09
1.121663e-09
4.231256e-09
-1.833304e-09
-2.397952e-09
-1.681721e-09
2.011771e-09
-3.300505e-10
2.071226e-09
-1.638333e-09
-4.328926e-10
-8.144131e-11
1.391196e-09
2.145736e-09
-1.646646e-09
1.802006e-09
-3.341019e-10
-1.467904e-09
2.014502e-09
-1.367321e-09
-6.471815e-10
3.498516e-11
1.650013e-09
-1.684998e-09
3.891124e-10
1.460956e-09
-1.850068e-09
1.406556e-09
-9.233028e-10
-4.832527e-10
-2.587702e-09
-2.386302e-09
-3.512713e-10
1.388118e-09
-1.036847e-09
-2.612113e-10
-1.798067e-09
2.059278e-09
-2.133166e-09
1.287995e-10
4.293666e-10
-1.918657e-09
1.48929e-09
-1.016934e-09
-5.254449e-10
1.542379e-09
-1.181353e-09
1.346161e-09
-1.648079e-10
1.830833e-09
-1.538931e-09
-2.919016e-10
1.408056e-09
-1.839256e-09
4.312e-10
1.4309e-09
-1.033743e-09
-3.971568e-10
-1.527999e-09
1.501186e-09
2.681327e-11
7.992653e-10
-2.384633e-09
1.585368e-09
1.646026e-09
-1.700316e-09
5.428998e-11
-8.926932e-10
1.503456e-09
-6.107627e-10
-1.360234e-09
1.635148e-10
1.545393e-09
-5.240496e-10
-1.021343e-09
4.908697e-11
1.313359e-09
-1.362446e-09
-2.665302e-09
1.145246e-09
1.520056e-09
-2.657017e-10
1.564665e-09
-1.298963e-09
-5.528855e-10
-1.200685e-09
2.771189e-09
-1.570504e-09
-2.503492e-10
-1.020116e-09
1.270465e-09
1.998747e-09
-6.361613e-10
-1.362586e-09
1.187997e-09
-8.685555e-10
-3.194415e-10
-1.795821e-09
1.261088e-09
5.347333e-10
2.649178e-10
-2.413464e-09
2.148546e-09
-4.005393e-09
2.319015e-09
1.686378e-09
-4.831085e-09
1.519562e-09
3.311523e-09
3.012802e-09
-3.859197e-09
1.201433e-09
-2.095615e-09
8.941824e-10
-5.959591e-10
1.797392e-09
1.887715e-09
-8.902646e-10
-9.974501e-10
-2.188177e-09
1.333451e-09
1.337527e-09
-8.103957e-10
-5.271316e-10
8.587489e-10
-2.450321e-09
1.591572e-09
1.650318e-09
-1.292034e-09
-1.518327e-09
1.644774e-09
1.536122e-09
-9.400979e-11
-1.583969e-09
1.726708e-09
-1.42739e-10
-1.193864e-09
-4.250014e-10
4.154072e-10
-1.508817e-09
1.09341e-09
-1.798455e-09
1.425179e-09
3.732754e-10
2.087423e-09
-3.45059e-10
-1.742364e-09
-1.904867e-09
6.437835e-10
1.261084e-09
1.325518e-09
-5.946113e-10
1.339637e-09
4.14982e-10
-1.754619e-09
1.854605e-09
2.760909e-11
-1.882214e-09
-4.00855e-09
9.204631e-10
3.088087e-09
-1.297819e-09
-2.755364e-10
1.573355e-09
-6.452072e-09
1.72648e-09
4.725592e-09
-1.914377e-09
-2.206403e-10
2.135017e-09
3.095091e-10
-1.794042e-09
1.484533e-09
3.399681e-09
8.633889e-11
-2.41972e-09
1.734975e-09
6.847441e-10
1.196073e-09
-5.96652e-10
-5.994205e-10
-5.133416e-11
-1.896928e-09
1.948262e-09
1.429057e-09
3.750679e-10
-1.804125e-09
-1.67374e-09
1.12757e-09
5.4617e-10
1.309359e-10
-1.37824e-09
1.247304e-09
-2.009024e-09
6.706357e-10
1.338388e-09
4.395747e-10
-4.75324e-09
1.40933e-09
-1.008425e-09
-4.00905e-10
9.358962e-10
5.097678e-10
-1.445664e-09
9.066688e-10
-1.880066e-09
6.041532e-10
1.275913e-09
-4.544236e-09
6.445647e-10
3.899672e-09
1.553307e-09
2.145217e-10
-1.767828e-09
-2.051267e-10
1.740188e-09
-1.535061e-09
-8.071782e-10
1.203177e-09
6.850272e-10
1.176081e-09
-1.861108e-09
8.209805e-10
-1.604977e-09
7.839961e-10
-1.647045e-09
7.091257e-10
-1.87504e-09
1.050175e-09
8.248655e-10
-1.308717e-09
1.040084e-09
-8.95852e-10
9.290221e-10
-3.317009e-11
-1.231439e-09
2.024723e-09
-7.932835e-10
1.070706e-09
1.269619e-09
2.238958e-09
1.070477e-09
-3.309435e-09
-5.707663e-10
-1.505288e-09
2.076054e-09
-1.922581e-09
1.760695e-09
1.618859e-10
-6.187068e-10
-1.050349e-09
-7.881909e-10
3.15227e-09
-2.364079e-09
1.474666e-09
-2.371536e-10
1.268198e-09
-1.748098e-09
4.799002e-10
-8.906685e-10
1.709908e-09
-8.192394e-10
7.582683e-10
-1.945264e-09
1.186996e-09
-3.014025e-09
1.734167e-09
1.279859e-09
-1.97861e-10
-1.007187e-09
1.205048e-09
-9.526767e-11
1.179246e-09
-1.083978e-09
-4.774581e-09
1.046718e-09
-2.03087e-09
9.841526e-10
-9.357151e-10
1.691723e-09
-7.560084e-10
-1.526707e-11
1.437527e-09
-1.42226e-09
9.354362e-10
6.651546e-10
-1.75741e-09
9.660179e-10
7.913917e-10
1.645274e-09
-2.581986e-10
-1.387075e-09
6.119926e-10
5.457164e-10
-1.157709e-09
1.780515e-09
-6.961334e-10
-1.084382e-09
2.291175e-09
7.796045e-10
-3.070779e-09
1.763044e-09
-2.941952e-10
9.368638e-10
-2.297082e-10
-1.153209e-09
3.866272e-10
1.892719e-10
1.700447e-09
-1.889719e-09
-9.279792e-10
-8.075611e-10
1.73554e-09
1.053987e-09
-1.500892e-09
4.469053e-10
-8.441924e-10
1.699713e-09
-8.555204e-10
6.578209e-10
-1.370916e-09
7.130951e-10
2.723187e-10
1.184509e-09
-1.456828e-09
-1.545536e-09
7.47107e-10
7.98429e-10
9.212952e-10
-1.772331e-09
8.510354e-10
1.706731e-09
-5.475013e-10
-1.15923e-09
-8.289756e-10
1.820053e-09
-9.91077e-10
-1.319545e-09
2.234615e-09
-1.111074e-09
1.405225e-09
-2.941516e-10
-3.372838e-09
9.038771e-10
-1.526728e-09
1.315531e-09
2.111971e-10
-7.749926e-10
-1.509237e-09
2.28423e-09
1.056155e-09
-1.114453e-09
6.773898e-10
-1.598683e-09
9.212931e-10
1.243985e-09
7.182714e-10
-1.962256e-09
-7.869181e-10
-1.048743e-09
1.835661e-09
2.023226e-09
-6.491973e-10
-2.332173e-09
7.209871e-10
1.611185e-09
1.829987e-09
2.441389e-10
-2.074126e-09
1.936885e-09
-3.115924e-09
1.179039e-09
-3.052024e-10
-1.415331e-09
1.720534e-09
-1.082523e-09
-7.356859e-10
1.818209e-09
-7.881788e-10
-1.078371e-09
1.86655e-09
-2.018519e-09
6.127558e-10
-1.218316e-09
1.663575e-09
1.427692e-09
-8.156998e-10
6.694502e-10
-2.488965e-09
4.155033e-10
-1.292916e-09
8.993288e-10
3.935872e-10
-2.726464e-09
3.864642e-09
-1.138178e-09
4.736296e-10
1.463294e-09
1.628355e-09
-1.672626e-09
4.427109e-11
1.270927e-09
-2.509168e-10
-1.020011e-09
9.276527e-10
9.701979e-10
-1.897851e-09
1.37228e-09
3.96962e-10
1.888628e-09
-1.211238e-09
1.25272e-09
-1.294864e-09
4.214406e-11
1.391115e-09
-1.107313e-09
-2.838023e-10
1.686588e-09
-9.203944e-10
-7.661939e-10
1.147691e-09
4.149544e-11
-1.189186e-09
2.868097e-11
1.697813e-09
-1.726494e-09
9.136419e-10
-2.03193e-09
1.096467e-09
-8.314321e-10
1.355716e-09
-5.242835e-10
2.026685e-09
-1.393163e-09
-6.335218e-10
-1.511641e-09
1.559856e-09
-4.821459e-11
3.11879e-09
-5.909135e-09
2.790345e-09
-4.154142e-09
4.18542e-09
-3.127788e-11
1.296752e-09
-1.259294e-09
-1.005781e-09
-8.769742e-10
1.882755e-09
1.911929e-09
-1.261701e-09
-6.502276e-10
2.046595e-09
-3.527134e-10
-1.693882e-09
-6.876803e-10
-1.03877e-09
1.72645e-09
-1.580057e-09
-1.895553e-10
-1.036499e-10
-1.33361e-09
1.437259e-09
1.147453e-09
1.898667e-09
-3.046119e-09
4.921426e-10
-1.274986e-09
7.828432e-10
-6.974592e-10
-6.21427e-10
1.318886e-09
-9.601674e-10
-3.534631e-10
1.313631e-09
1.744651e-09
4.039465e-10
1.021347e-09
5.127232e-12
-1.026475e-09
1.615784e-09
-1.743097e-09
1.27313e-10
-9.376212e-10
1.179919e-09
-2.422982e-10
-1.316705e-09
4.1375e-10
-1.077165e-09
8.270431e-10
2.501218e-10
2.209484e-09
-7.76297e-10
-1.433187e-09
-1.995545e-09
1.076606e-09
9.189383e-10
-1.382596e-09
1.3864e-09
-3.803958e-12
-6.68919e-10
1.73039e-09
-1.012638e-09
1.598949e-09
-5.863112e-10
2.408548e-10
1.549406e-09
-1.79026e-09
-7.864095e-10
-7.572325e-10
1.543642e-09
-1.479124e-09
-2.63939e-10
1.743063e-09
-1.254327e-09
2.932228e-11
-1.834892e-09
4.564835e-10
1.378408e-09
5.962829e-11
-2.130166e-09
2.070537e-09
1.70616e-09
3.300216e-10
-1.22959e-09
2.44439e-10
9.851505e-10
-3.606185e-09
2.659039e-09
9.471464e-10
-1.14312e-09
1.635263e-09
1.020796e-10
-4.110629e-09
-1.616519e-09
-3.925047e-10
8.282476e-09
-8.282476e-09
1.644738e-09
-1.44414e-09
-1.795735e-09
6.192644e-10
1.176471e-09
1.139034e-09
7.659642e-10
-1.904999e-09
-1.471403e-09
4.877312e-09
1.159798e-09
6.898658e-09
-8.058456e-09
-1.177496e-09
1.855852e-09
-6.78356e-10
6.819807e-10
-1.801896e-09
1.119915e-09
1.031552e-09
-2.651234e-10
1.025552e-09
-1.470441e-09
4.448885e-10
9.74671e-10
-1.990446e-09
2.02269e-09
-4.402328e-10
-1.582457e-09
1.308597e-09
9.1329e-10
-2.221887e-09
2.046855e-09
-2.733564e-10
9.301688e-10
1.023549e-09
4.060567e-10
1.36525e-09
-1.854749e-09
1.844067e-09
-1.741081e-09
1.875957e-09
2.429384e-10
-2.118896e-09
1.454825e-09
1.387904e-10
-1.593615e-09
-1.193036e-09
1.666666e-09
-5.957328e-10
-4.598865e-09
5.194597e-09
-1.726676e-10
-1.342407e-09
1.515074e-09
8.655162e-10
-9.607838e-10
1.557117e-09
-1.595586e-09
5.786523e-10
2.799081e-09
1.440391e-10
-2.94312e-09
1.222222e-09
-8.957809e-10
-3.264408e-10
5.923642e-10
1.025488e-09
-1.617853e-09
1.309639e-10
1.298093e-09
1.389598e-09
-1.978707e-09
5.891093e-10
-1.892197e-10
-2.537244e-09
2.794046e-10
-1.433993e-09
1.154588e-09
-1.207872e-09
1.217423e-09
-1.079499e-09
-1.033137e-09
1.034638e-09
-1.501223e-12
1.912281e-09
4.137667e-10
-2.326047e-09
4.242769e-11
1.759579e-09
1.346002e-09
-1.317321e-09
4.004967e-10
-1.601389e-09
1.200893e-09
4.115428e-11
-1.357859e-09
2.178399e-10
1.149295e-09
-1.705777e-09
2.827797e-10
-1.76801e-09
1.408982e-09
3.590278e-10
-2.072166e-09
2.61288e-10
1.810878e-09
-2.227977e-10
-1.432707e-09
1.655505e-09
1.316792e-09
5.403676e-10
-1.85716e-09
2.307773e-10
-1.268964e-09
1.038187e-09
2.368869e-09
1.743108e-09
1.355051e-10
-1.264743e-09
1.853198e-10
1.079423e-09
-1.121271e-09
-1.814273e-09
2.935544e-09
5.376565e-10
1.552342e-09
-2.089998e-09
-2.183345e-09
3.566847e-10
5.11169e-10
-2.359038e-09
1.847869e-09
-5.947705e-10
-1.997732e-11
-1.421553e-09
1.778489e-09
-2.425904e-10
-1.535898e-09
8.019691e-10
-1.533515e-09
7.315455e-10
-4.615113e-09
4.680772e-09
-6.565886e-11
-1.601467e-09
1.3246e-09
3.760294e-09
-4.26376e-09
5.034658e-10
6.40779e-09
1.895089e-09
6.500666e-10
1.242631e-09
-1.892698e-09
1.708814e-09
-2.687363e-09
1.389983e-09
-1.741656e-09
3.516729e-10
9.423275e-10
3.951999e-10
7.041387e-10
8.210402e-10
-1.525179e-09
-1.790029e-09
2.494168e-09
-1.367545e-09
1.001645e-09
3.659e-10
-1.536034e-11
1.589558e-09
-1.574197e-09
1.777734e-09
-1.875759e-09
9.976637e-10
3.787614e-10
8.121662e-11
1.806299e-09
-1.887516e-09
4.419983e-10
1.365277e-09
-1.734229e-09
3.689521e-10
1.542683e-09
-2.195113e-09
1.084576e-10
9.476978e-10
-1.787378e-09
2.041905e-09
-2.545271e-10
6.362646e-10
1.472541e-09
-2.108805e-09
-1.173784e-09
-4.709399e-10
1.644724e-09
7.102781e-10
-3.590732e-10
-7.379108e-10
1.096984e-09
-6.388425e-11
1.617191e-09
3.597206e-10
-1.799933e-09
1.440212e-09
9.523037e-10
4.570262e-10
-1.178155e-09
-3.141001e-10
1.492255e-09
-1.277214e-10
1.541937e-09
-1.414215e-09
5.197584e-10
1.221576e-09
-1.741334e-09
-8.151444e-10
-7.863225e-10
-3.067972e-10
-2.63687e-09
-2.825146e-10
1.836418e-09
5.285553e-10
-1.186772e-09
6.582172e-10
-8.865168e-11
1.707015e-09
-1.618363e-09
7.421461e-10
-1.402267e-09
6.601211e-10
-2.213921e-09
6.477093e-10
1.566212e-09
-2.793293e-10
1.949006e-09
-1.669677e-09
1.114859e-09
1.580386e-10
-1.272898e-09
1.102662e-09
8.29318e-10
-1.93198e-09
-4.924104e-10
-1.232254e-09
1.724665e-09
1.189939e-09
-1.877619e-09
-1.268991e-09
-2.658139e-10
1.534805e-09
1.063961e-09
-1.928867e-09
-1.426453e-09
1.341934e-09
8.451915e-11
-1.50414e-09
-2.046498e-10
-1.579257e-09
1.777618e-09
-1.983614e-10
8.476722e-10
-1.759863e-09
9.121903e-10
-2.008415e-09
5.263562e-10
1.482059e-09
-7.756979e-11
1.004983e-09
-9.274129e-10
-8.469095e-10
8.445754e-09
-7.598844e-09
-1.090336e-09
1.279607e-09
-2.028548e-09
8.492873e-10
1.179261e-09
1.407978e-09
4.671467e-09
-4.524492e-10
-4.219018e-09
1.402485e-09
-1.981707e-09
3.081612e-09
-4.553015e-09
7.348733e-10
5.906447e-10
1.521765e-09
-1.931614e-09
6.569262e-10
1.274688e-09
8.924086e-09
-8.924086e-09
1.173086e-09
-1.208545e-09
3.545836e-11
5.116969e-11
-2.158312e-09
-1.44712e-10
-1.694371e-09
1.839083e-09
-1.37794e-09
1.296742e-09
8.119716e-11
2.656014e-10
1.263896e-09
-1.529498e-09
1.254792e-09
1.495468e-10
-1.404339e-09
-5.328186e-10
2.148043e-09
-1.615225e-09
-2.784057e-10
-1.131054e-09
1.40946e-09
-3.860835e-10
-1.493982e-09
1.974958e-09
-4.902088e-10
-1.3165e-09
1.167758e-09
1.487427e-10
-6.105323e-10
1.794893e-09
-1.18436e-09
-4.51264e-10
2.022603e-09
-2.279687e-10
-1.653637e-09
1.881605e-09
-5.984091e-10
-1.321999e-09
1.920408e-09
3.433878e-10
1.458307e-09
-1.801695e-09
5.792801e-10
1.091971e-09
-1.951184e-09
5.685875e-10
-1.171373e-09
-6.050765e-10
1.77645e-09
-1.777682e-09
3.881794e-10
1.389503e-09
-2.113776e-09
1.965434e-10
1.917232e-09
3.638862e-10
-1.961846e-09
1.59796e-09
-1.793918e-09
1.202323e-09
-1.837614e-09
6.352907e-10
-1.892218e-09
1.612888e-09
1.27997e-09
-2.757173e-09
1.477203e-09
-4.173799e-09
2.074384e-09
2.099415e-09
-1.970437e-09
-6.94865e-10
9.202969e-10
-1.484367e-09
5.640705e-10
1.766368e-09
-9.581677e-10
-8.082007e-10
-1.242058e-09
4.950927e-10
1.800414e-09
-2.099883e-09
2.994689e-10
-1.185127e-09
-9.550445e-11
6.806654e-09
-4.166187e-09
-2.640467e-09
-1.280665e-09
4.071435e-10
8.735213e-10
7.820626e-10
-1.560126e-09
-1.120701e-09
-4.033152e-10
1.524016e-09
1.003538e-09
-1.216968e-09
-7.61843e-10
-4.686677e-10
1.230511e-09
2.690041e-09
4.92391e-09
-9.677249e-10
1.813185e-09
-8.454596e-10
1.853757e-09
1.548191e-14
-1.853773e-09
8.270082e-10
-2.108828e-09
-2.722257e-09
-8.549677e-10
2.020799e-09
-1.592943e-09
1.52787e-09
-7.972993e-10
-7.30571e-10
2.844936e-10
1.243732e-09
-1.528225e-09
3.709717e-10
-9.592123e-10
-3.557483e-10
-1.054625e-09
-4.115057e-09
5.630111e-10
9.934688e-10
1.500782e-09
-1.356674e-09
-1.441081e-10
4.776661e-10
-1.526861e-09
1.49919e-09
-5.044893e-10
8.860138e-10
3.343449e-10
-1.220359e-09