/*--------------------------------*- C++ -*----------------------------------*\
| =========                 |                                                 |
| \\      /  F ield         | OpenFOAM: The Open Source CFD Toolbox           |
|  \\    /   O peration     | Version:  2406                                  |
|   \\  /    A nd           | Website:  www.openfoam.com                      |
|    \\/     M anipulation  |                                                 |
\*---------------------------------------------------------------------------*/
FoamFile
{
    version     2.0;
    format      ascii;
    arch        "LSB;label=32;scalar=64";
    class       volVectorField;
    location    "0.54";
    object      U;
}
// * * * * * * * * * * * * * * * * * * * * * * * * * * * * * * * * * * * * * //

dimensions      [0 1 -1 0 0 0 0];

internalField   nonuniform List<vector> 
15536
(
(0.07140709 -3.480826 -1.686956e-22)
(0.116408 -2.270333 -1.819703e-19)
(0.0711234 -1.070935 -3.226837e-19)
(-0.06594187 0.120348 -3.188667e-19)
(-0.2502187 1.204556 -5.862421e-21)
(-0.4369098 1.941095 3.537527e-21)
(-0.6057861 2.33752 8.313344e-21)
(-0.7339478 2.475873 -8.27021e-21)
(-0.7194043 2.223006 2.342519e-18)
(-0.4825481 1.40089 2.341346e-18)
(0.03538794 -0.004900268 0)
(0.3135027 -0.6635478 0)
(0.04131208 -0.1585695 -1.617206e-20)
(-0.3639021 0.565096 4.100356e-18)
(-0.4775079 0.7446704 2.103923e-18)
(-0.00309747 0.05060152 -4.686244e-18)
(0.1669428 -0.2016928 2.693163e-18)
(-0.3078474 0.3106758 2.590958e-20)
(-0.9057049 0.9208233 -5.580433e-20)
(-1.426267 1.409128 3.003403e-20)
(-1.686235 1.599447 0)
(-1.852005 1.651035 4.923993e-18)
(-1.668734 1.437785 0)
(-0.6093448 0.6204353 2.846345e-18)
(1.95909 -1.15046 -1.495565e-20)
(3.780831 -2.269019 3.987188e-22)
(2.3848 -1.428802 -4.001708e-22)
(-0.2571064 0.01717715 -1.1455e-18)
(-1.903137 0.825268 -2.595165e-18)
(-2.89646 1.183976 0)
(-4.171081 1.503527 -2.332583e-20)
(-6.478169 2.040019 -3.476613e-18)
(-9.104323 2.589592 5.937607e-18)
(-10.44468 2.824382 0)
(-5.221077 1.546721 -6.993623e-18)
(3.552643 -0.4331439 -1.477743e-20)
(2.82046 -0.5878957 1.87019e-18)
(-1.573409 -0.1513853 -1.314571e-18)
(-2.524139 -0.05312619 1.475261e-21)
(-0.7653431 -0.03929215 -3.649317e-19)
(5.396076 0.5403648 1.338083e-18)
(9.57899 1.278461 -2.095999e-20)
(11.68776 1.963089 2.03577e-20)
(12.70208 2.617628 0)
(13.21285 3.280082 -5.300427e-18)
(13.44661 3.914278 -5.288382e-18)
(13.47052 4.507078 0)
(13.36217 5.064099 -1.013653e-17)
(13.14627 5.584308 9.893261e-18)
(12.86913 6.077166 9.546902e-18)
(12.53584 6.533554 3.46983e-20)
(12.14025 6.947375 -8.629693e-18)
(11.69135 7.314307 0)
(11.19826 7.635566 0)
(10.67035 7.907645 6.865376e-18)
(10.10623 8.122908 6.242056e-18)
(9.523576 8.291377 4.070157e-20)
(8.928678 8.411239 4.783863e-18)
(8.309619 8.464832 8.211045e-18)
(7.678977 8.459859 3.371482e-18)
(7.044805 8.399309 2.581163e-18)
(6.419804 8.291479 -1.75004e-20)
(5.801203 8.127073 0)
(5.186948 7.900088 3.006591e-19)
(4.589847 7.625994 0)
(4.008525 7.290734 1.251139e-18)
(3.450175 6.900918 -2.810711e-20)
(2.924653 6.466298 -2.657394e-21)
(2.431828 5.98469 1.196059e-20)
(1.976336 5.460519 -4.055689e-18)
(1.563713 4.901611 -1.926747e-20)
(1.194938 4.305509 2.641965e-18)
(0.8717182 3.673071 2.886992e-18)
(0.5992801 3.017918 0)
(0.3775205 2.345448 0)
(0.2106842 1.650877 3.452513e-18)
(0.09517427 0.9450052 -1.141994e-22)
(0.03471188 0.2623845 9.292334e-19)
(0.02226314 -0.3865025 1.695434e-21)
(0.06364015 -1.089247 -6.942669e-21)
(0.1568385 -1.839723 -1.715201e-18)
(0.3083323 -2.58391 0)
(0.5164856 -3.30452 3.05027e-18)
(0.7780382 -3.997211 0)
(1.091315 -4.660374 -2.527016e-18)
(1.454173 -5.292481 2.201868e-18)
(1.865572 -5.891629 1.611001e-20)
(2.322142 -6.456568 3.123076e-18)
(2.820754 -6.978316 7.834961e-21)
(3.356829 -7.4545 -1.650263e-18)
(3.927663 -7.886865 -8.436716e-19)
(4.530766 -8.269717 3.121035e-21)
(5.163899 -8.605811 8.523486e-19)
(5.816822 -8.89086 -1.718134e-18)
(6.485872 -9.119828 2.349447e-20)
(7.160186 -9.279783 6.831514e-21)
(7.844854 -9.385752 -4.286232e-18)
(8.535351 -9.43772 0)
(9.222639 -9.427499 1.182007e-17)
(9.909183 -9.366177 6.655896e-18)
(10.57487 -9.239307 1.164085e-19)
(11.21626 -9.049885 -8.333384e-18)
(11.82932 -8.801245 0)
(12.41244 -8.497515 0)
(12.96457 -8.147069 0)
(13.47686 -7.74782 0)
(13.93893 -7.300852 1.149513e-17)
(14.34725 -6.810142 1.208239e-17)
(14.70167 -6.280604 3.058878e-20)
(14.9969 -5.720719 -1.286948e-17)
(15.20943 -5.125927 -6.539937e-18)
(15.31336 -4.497337 -6.72233e-18)
(15.26365 -3.833422 5.249219e-20)
(15.02373 -3.140294 6.784721e-18)
(14.54165 -2.431513 3.467268e-18)
(13.69119 -1.736369 -2.671667e-20)
(12.05633 -1.094601 -6.309007e-21)
(8.815054 -0.5139797 4.182265e-19)
(2.656381 -0.0926227 -8.625908e-19)
(-3.571083 -0.1531229 -2.208166e-20)
(-3.530035 -0.3290851 1.477824e-20)
(-2.989123 -0.1655721 3.139168e-18)
(2.579776 0.86771 2.054694e-20)
(4.430673 0.9635619 0)
(-5.629168 -2.204295 -8.170671e-18)
(-11.90275 -4.304945 -9.569141e-18)
(-10.68191 -4.022723 6.105221e-21)
(-7.799745 -3.184024 8.411338e-18)
(-5.09798 -2.320846 -4.883283e-18)
(-3.523033 -1.786982 0)
(-2.35618 -1.261373 0)
(-0.6033513 -0.2270814 -8.260132e-19)
(2.263461 1.625686 0)
(4.257797 3.041992 -1.171659e-21)
(2.925567 2.154779 -2.893036e-19)
(0.5254675 0.3007427 -1.692716e-18)
(-0.5794221 -0.639728 3.416423e-20)
(-1.448563 -1.566659 -9.900032e-18)
(-2.383044 -2.76645 -8.297055e-20)
(-2.913459 -3.572731 1.076304e-17)
(-2.386082 -3.061372 4.517422e-18)
(-1.194951 -1.506156 3.718013e-18)
(0.3162533 0.723933 3.295122e-18)
(1.508281 2.464921 0)
(1.079822 1.723775 -1.554168e-20)
(-0.4017844 -1.006861 -3.721212e-18)
(-0.9970646 -2.403771 0)
(-0.646445 -1.59505 3.361852e-18)
(-0.08201959 -0.1153186 -2.774195e-20)
(0.1640579 0.5267202 1.431891e-20)
(0.1813371 0.6724503 1.873866e-18)
(0.01363111 -0.02592018 1.799593e-22)
(-0.3990742 -3.260598 0)
(-0.5954035 -5.767254 8.931446e-19)
(-0.5107792 -6.266278 6.806816e-21)
(-0.270155 -5.56785 1.253394e-21)
(-0.05929554 -4.626037 -1.622773e-21)
(-0.09452857 -3.659198 -9.248328e-20)
(-0.01525197 -2.392997 1.489566e-19)
(-0.03660474 -1.137843 0)
(-0.1709273 0.1092731 2.621481e-19)
(-0.3464384 1.243493 0)
(-0.536095 2.043397 1.435609e-18)
(-0.7238375 2.519144 6.824467e-21)
(-0.8615065 2.717946 -6.803942e-21)
(-0.9370604 2.772519 -1.908694e-18)
(-0.8691794 2.5206 -1.874964e-18)
(-0.4183409 1.28876 0)
(-0.06748693 0.201499 1.38758e-20)
(-0.1885588 0.162461 -5.333863e-22)
(-0.5246493 0.7283145 -1.674739e-18)
(-0.5015394 0.8533844 -3.504531e-18)
(0.3943729 -0.4277912 1.904322e-18)
(0.247528 -0.3778513 -2.161735e-18)
(-0.2375812 0.1252358 -1.820277e-20)
(-0.648888 0.5773659 0)
(-0.9367979 0.8630316 0)
(-1.440688 1.274485 0)
(-1.949772 1.64029 4.067456e-18)
(-2.051486 1.724513 2.28046e-20)
(-1.431507 1.381413 -2.237187e-20)
(1.551461 -0.6052652 3.05015e-21)
(4.503553 -2.754248 -3.107355e-21)
(2.628635 -1.890237 0)
(0.3182675 -0.5333423 0)
(-0.898983 0.2144742 4.329288e-18)
(-1.581062 0.4909174 2.653341e-20)
(-2.431196 0.621225 -2.55125e-20)
(-4.390704 0.9643077 2.919839e-18)
(-6.948141 1.543999 4.976721e-18)
(-8.702527 2.199357 -4.747451e-20)
(-7.620166 2.33732 -5.188443e-18)
(0.8202196 0.3835189 1.5202e-18)
(2.876144 -0.5994719 1.977012e-21)
(3.668952 -0.5205139 1.028352e-18)
(5.987124 0.007760372 0)
(9.77743 0.6410668 2.462313e-19)
(14.76859 1.284099 1.814861e-18)
(16.72781 1.710348 1.897256e-18)
(17.03985 2.142729 1.990718e-18)
(17.02849 2.693623 -6.348512e-20)
(16.88558 3.311129 4.210852e-18)
(16.66915 3.926938 -3.225119e-20)
(16.39598 4.542969 0)
(16.06797 5.138715 8.074849e-18)
(15.69339 5.716063 0)
(15.27672 6.267343 -5.742498e-20)
(14.80627 6.775947 5.754472e-20)
(14.28131 7.239516 6.891023e-18)
(13.7088 7.651672 -4.820028e-20)
(13.09593 8.011996 5.990244e-18)
(12.4504 8.316473 -5.52422e-18)
(11.77569 8.562536 0)
(11.08181 8.758098 3.213481e-20)
(10.37547 8.89845 -3.926552e-18)
(9.652696 8.971146 -6.532517e-18)
(8.918277 8.97783 0)
(8.184255 8.928078 -2.073839e-18)
(7.459293 8.822838 -8.77089e-21)
(6.7442 8.654822 8.082596e-19)
(6.040104 8.423395 -8.792592e-22)
(5.353287 8.134441 8.895858e-22)
(4.689218 7.783787 -1.015806e-18)
(4.050741 7.37533 1.623905e-18)
(3.448319 6.913803 0)
(2.883218 6.404359 0)
(2.36061 5.850726 -1.615902e-20)
(1.884787 5.25469 0)
(1.458877 4.617781 0)
(1.084891 3.942803 0)
(0.7676904 3.239994 -2.569693e-18)
(0.5059296 2.519487 2.059223e-20)
(0.3112812 1.773672 1.13399e-20)
(0.1719855 1.017281 -5.533091e-21)
(0.09754581 0.2810849 -7.63378e-19)
(0.08413691 -0.4244462 3.044132e-21)
(0.1456003 -1.180611 -7.387013e-19)
(0.260014 -1.983618 1.396587e-18)
(0.4420285 -2.778963 1.060373e-20)
(0.6886087 -3.548307 -2.470754e-18)
(0.9953604 -4.288834 -3.585722e-20)
(1.361138 -4.999177 2.091482e-18)
(1.782218 -5.673046 -1.832609e-18)
(2.259035 -6.310033 0)
(2.784099 -6.909922 -5.100749e-18)
(3.355851 -7.458399 -1.301213e-20)
(3.971211 -7.958673 1.338426e-18)
(4.624388 -8.414365 6.899063e-19)
(5.313015 -8.812465 0)
(6.035199 -9.156153 0)
(6.781693 -9.44968 0)
(7.546082 -9.67539 1.844434e-20)
(8.32291 -9.830602 -1.831785e-20)
(9.111451 -9.926397 3.364499e-18)
(9.906188 -9.960838 5.49075e-21)
(10.70293 -9.930208 -4.777907e-18)
(11.49567 -9.839386 -7.970851e-20)
(12.27404 -9.683472 1.20203e-17)
(13.02988 -9.460103 6.617898e-18)
(13.75886 -9.172218 -5.36251e-20)
(14.46348 -8.825996 7.606855e-18)
(15.13847 -8.426502 6.192203e-20)
(15.77531 -7.969911 -6.954484e-20)
(16.3664 -7.461837 6.925879e-20)
(16.90771 -6.905097 7.541694e-20)
(17.39908 -6.306093 9.884444e-18)
(17.83539 -5.669316 -7.770652e-20)
(18.205 -4.999559 0)
(18.52162 -4.306087 0)
(18.79728 -3.602123 0)
(19.01599 -2.899923 0)
(19.15079 -2.201202 2.010216e-20)
(19.17273 -1.529614 -1.998638e-20)
(18.96206 -0.9739888 1.194542e-18)
(18.06921 -0.600259 4.510701e-21)
(13.89595 -0.2994832 0)
(7.573559 0.06726457 -1.341042e-18)
(3.873381 0.4240269 2.966241e-18)
(2.371383 0.7315849 -2.553482e-18)
(2.430601 0.855287 2.799989e-20)
(1.229137 -0.2557507 -3.447934e-18)
(-8.655549 -3.454976 1.493917e-20)
(-10.40159 -3.558928 0)
(-8.443548 -2.661034 1.212002e-17)
(-5.673517 -1.795852 -1.389628e-17)
(-3.3667 -1.195995 -3.990401e-18)
(-2.225232 -0.9369439 -8.664669e-21)
(-1.334771 -0.5187305 -3.103009e-20)
(-0.03001455 0.4211853 1.05073e-20)
(2.341886 2.112523 0)
(5.196873 3.902803 -4.927693e-19)
(3.656077 2.493703 2.224404e-19)
(-0.07703024 -0.469319 -1.028674e-20)
(-1.384214 -1.555936 -2.898214e-18)
(-2.480206 -2.758834 7.855839e-18)
(-3.258466 -3.747469 4.418046e-18)
(-3.26675 -3.83607 -3.362053e-21)
(-2.562077 -3.011336 -3.634198e-18)
(-1.427832 -1.485422 -2.607365e-20)
(0.06505084 0.7602792 -2.630559e-18)
(1.371958 2.377388 2.690501e-20)
(1.714922 2.630177 4.135796e-21)
(-0.2210522 -1.08402 -3.036084e-20)
(-1.250859 -2.888012 0)
(-0.571846 -0.8779568 0)
(-0.01870905 0.43578 -2.881899e-18)
(0.2120973 0.8367429 0)
(0.195342 0.5142537 -3.00856e-18)
(-0.3994683 -3.205762 1.386612e-18)
(-0.870068 -6.573007 -1.088559e-20)
(-0.9489804 -7.236304 1.104561e-20)
(-0.7698984 -6.539412 6.877857e-19)
(-0.5122936 -5.90368 -2.961271e-19)
(-0.2610656 -4.864554 -1.148344e-19)
(-0.2030118 -3.631188 7.412617e-20)
(-0.137883 -2.371261 -1.202651e-19)
(-0.1629178 -1.122636 3.328663e-21)
(-0.3002721 0.1184387 -2.167219e-19)
(-0.4453876 1.234648 0)
(-0.5944467 2.033917 -1.17763e-18)
(-0.746186 2.518595 -1.122874e-20)
(-0.8570617 2.756452 7.6808e-19)
(-0.8989425 2.745954 1.579198e-18)
(-0.8791005 2.692808 1.53622e-18)
(-0.6737985 2.107104 1.488549e-18)
(-0.4568825 1.175925 -1.170567e-20)
(-0.4645593 0.6741994 0)
(-0.5840243 0.7990412 0)
(-0.2788213 0.6694912 1.403614e-18)
(0.6348456 -0.651574 1.570955e-18)
(0.2203202 -0.3883213 1.797365e-18)
(-0.2152707 0.01354531 2.988889e-20)
(-0.6314643 0.4794503 0)
(-1.021728 0.8368182 2.850885e-18)
(-1.728983 1.43473 3.203011e-18)
(-2.244293 1.871571 -3.321667e-18)
(-2.221809 1.945895 0)
(-1.527045 1.697011 1.842977e-18)
(0.5002842 0.4953791 0)
(3.781554 -2.180623 5.53186e-20)
(2.510371 -2.053272 0)
(1.284214 -1.192487 -7.701238e-19)
(0.8539744 -0.6268315 -3.523604e-18)
(0.8162109 -0.493054 0)
(0.2160169 -0.450267 0)
(-1.828196 -0.1402517 2.987584e-21)
(-4.262459 0.5947622 -4.212725e-18)
(-5.30236 1.501588 5.826514e-18)
(-6.034164 2.41671 8.60338e-18)
(-0.117059 0.9958183 -1.15337e-18)
(7.63971 -0.6766204 1.143409e-18)
(11.85454 -0.4887103 -7.498776e-19)
(14.02197 0.2620241 0)
(16.02849 1.114153 0)
(17.08458 1.675158 -1.428153e-18)
(16.75642 2.003044 -1.569485e-18)
(16.57379 2.515245 -3.250219e-18)
(16.50804 3.142934 3.318208e-18)
(16.39048 3.791834 7.956951e-20)
(16.21386 4.429825 -5.332498e-20)
(15.97038 5.044503 0)
(15.65554 5.623587 0)
(15.28049 6.174669 6.343477e-18)
(14.8597 6.69719 -6.129038e-18)
(14.38949 7.175583 0)
(13.86693 7.608251 0)
(13.30038 7.988124 7.904768e-20)
(12.69526 8.317556 -4.994088e-18)
(12.06045 8.590554 0)
(11.39961 8.80421 -3.993494e-18)
(10.72075 8.969659 -3.556944e-18)
(10.03227 9.080777 -3.05963e-18)
(9.331056 9.123584 2.623787e-18)
(8.618316 9.102926 -2.962881e-20)
(7.907033 9.028939 1.649594e-18)
(7.205624 8.901826 0)
(6.516606 8.712668 -6.585439e-19)
(5.840435 8.461637 1.803906e-21)
(5.180881 8.156238 7.821082e-21)
(4.548402 7.788797 -8.976677e-19)
(3.938394 7.368048 0)
(3.363809 6.896607 -1.859306e-18)
(2.824748 6.380203 -1.953921e-20)
(2.328525 5.821512 2.74413e-18)
(1.876414 5.223289 1.577168e-18)
(1.472601 4.586123 -1.764142e-18)
(1.11777 3.912914 -1.938491e-18)
(0.8164611 3.213158 2.090013e-18)
(0.5656612 2.497596 -2.230643e-18)
(0.3831169 1.756495 -1.141255e-18)
(0.2454821 1.006693 2.402351e-18)
(0.1689752 0.2776903 1.248339e-18)
(0.1540214 -0.4250456 2.506149e-21)
(0.2244173 -1.176847 6.116042e-19)
(0.3330679 -1.974272 -9.11664e-21)
(0.5057903 -2.763034 0)
(0.7390273 -3.527003 -1.542991e-20)
(1.027713 -4.264057 -1.299495e-20)
(1.372923 -4.972291 -1.656752e-18)
(1.769208 -5.645996 3.010327e-18)
(2.222676 -6.283482 -1.299261e-18)
(2.719318 -6.887405 2.070539e-18)
(3.260256 -7.442258 1.453004e-20)
(3.846824 -7.950202 0)
(4.468599 -8.417527 6.184748e-19)
(5.125331 -8.829464 -3.380773e-21)
(5.817802 -9.188194 4.689045e-19)
(6.534298 -9.500504 0)
(7.267794 -9.748035 1.596966e-18)
(8.016995 -9.925883 0)
(8.778617 -10.04747 -5.404245e-20)
(9.546503 -10.11068 3.258769e-18)
(10.3205 -10.10881 0)
(11.09003 -10.05091 -4.401388e-18)
(11.84753 -9.929728 -4.930384e-18)
(12.58498 -9.742212 -5.426101e-18)
(13.29764 -9.490599 0)
(13.98987 -9.179703 -1.270828e-17)
(14.65458 -8.817164 1.016676e-19)
(15.28409 -8.396705 0)
(15.87061 -7.925199 0)
(16.4103 -7.403448 0)
(16.90284 -6.838722 8.006545e-18)
(17.3407 -6.240659 -8.257726e-18)
(17.71606 -5.604099 0)
(18.02017 -4.933322 0)
(18.25999 -4.233204 4.270802e-18)
(18.43745 -3.511246 3.393379e-20)
(18.53782 -2.782124 0)
(18.57837 -2.056133 0)
(18.56481 -1.381286 -1.985892e-18)
(18.94731 -0.9139609 2.258542e-19)
(18.67283 -0.570563 0)
(16.52059 0.1063314 9.211449e-19)
(13.88453 0.9084948 1.817967e-20)
(11.64298 1.536772 1.128365e-20)
(7.287533 1.376358 -2.568128e-20)
(-0.429154 -1.168425 2.574001e-18)
(-7.172484 -3.525694 4.822214e-18)
(-6.604598 -2.500875 9.924562e-20)
(-5.656229 -1.437777 6.242909e-20)
(-2.981858 -0.3626623 5.788806e-18)
(-0.5792278 0.2190981 3.425735e-18)
(0.1582492 0.3128356 0)
(0.4377011 0.544421 1.742059e-18)
(1.081477 1.316629 0)
(2.439991 2.540466 5.720242e-21)
(4.912637 3.714585 4.038455e-19)
(2.997806 1.540048 9.552048e-21)
(-0.4755211 -1.215885 -9.955266e-21)
(-1.742443 -2.140857 2.337935e-18)
(-2.713151 -3.184977 -3.182805e-18)
(-3.249532 -3.838516 -3.633887e-18)
(-3.22518 -3.775637 -3.673181e-18)
(-2.706979 -2.977756 -2.927939e-18)
(-1.68583 -1.459473 0)
(-0.2901783 0.7288584 -1.8161e-20)
(1.22589 2.309565 0)
(1.948935 2.711391 -2.704081e-18)
(0.3764268 -0.4802395 2.363202e-18)
(-1.007894 -2.353648 0)
(-0.4663648 -0.08885688 0)
(-0.03052395 0.6556781 4.743405e-18)
(0.1989866 0.6430249 -1.285984e-18)
(-0.02320428 -1.520267 2.343904e-18)
(-0.6153789 -5.680377 -8.543784e-21)
(-0.8559539 -7.29847 8.491468e-21)
(-0.8344085 -6.909656 0)
(-0.7064608 -6.567415 -5.617484e-19)
(-0.5232869 -5.86108 4.728987e-19)
(-0.3321586 -4.830284 9.483646e-20)
(-0.3573983 -3.624542 -1.210485e-19)
(-0.2896214 -2.372007 -2.87794e-21)
(-0.3100235 -1.123348 2.950057e-21)
(-0.4497255 0.1282198 -5.885345e-21)
(-0.5629517 1.220482 5.915783e-21)
(-0.671597 2.018811 4.830702e-19)
(-0.7982675 2.520665 -9.225409e-21)
(-0.8915959 2.779515 -6.346508e-19)
(-0.9107526 2.785895 1.991619e-20)
(-0.8348475 2.657423 -1.253166e-18)
(-0.7234402 2.374571 -1.870432e-20)
(-0.6273404 1.707709 0)
(-0.6086631 1.016111 0)
(-0.5694841 0.8284272 -1.145881e-18)
(0.01183526 0.4443536 -1.162847e-18)
(0.7655493 -0.7304099 -2.579766e-18)
(0.2033809 -0.4787343 -1.475831e-18)
(-0.319905 0.008510796 0)
(-0.846062 0.5942944 0)
(-1.369422 1.049976 -4.633796e-18)
(-2.098005 1.642211 -5.209334e-18)
(-2.515527 2.053142 4.021652e-20)
(-2.340948 2.114971 -7.126602e-20)
(-1.438509 1.849873 -3.005231e-18)
(-0.131964 1.353903 -5.78633e-19)
(2.709415 -1.246531 -4.590634e-20)
(2.510523 -2.138379 -3.590637e-20)
(2.605079 -1.907795 5.96516e-19)
(2.952738 -1.534482 1.432561e-18)
(3.219454 -1.484824 0)
(2.561468 -1.513265 -5.137999e-20)
(0.8037251 -1.324233 -4.04787e-18)
(-1.192941 -0.5466369 2.254537e-20)
(-2.228163 0.7426237 1.052223e-19)
(-2.507292 2.122882 -3.725286e-18)
(2.143285 1.373227 -9.016871e-19)
(12.30311 -0.4217408 -7.318898e-21)
(15.85116 -0.439716 -5.453144e-19)
(16.8116 0.2041237 -2.948008e-19)
(17.08053 1.011933 -2.293819e-21)
(16.68786 1.43692 0)
(16.49085 1.677238 -2.025959e-20)
(16.62148 2.135676 1.371682e-18)
(16.64628 2.70348 -5.490097e-18)
(16.57724 3.326145 4.309952e-20)
(16.41946 3.953857 -2.791003e-18)
(16.17837 4.572373 -8.45041e-20)
(15.86769 5.156582 -5.3081e-18)
(15.49607 5.717043 -6.227879e-21)
(15.0771 6.25707 5.057374e-18)
(14.61007 6.750555 -4.749489e-18)
(14.08968 7.202242 0)
(13.52456 7.601136 6.384932e-20)
(12.91878 7.952474 -6.421586e-20)
(12.28146 8.248767 0)
(11.61629 8.486682 3.290829e-18)
(10.93197 8.67633 6.585412e-20)
(10.23683 8.811631 2.558004e-18)
(9.529035 8.877417 -2.098569e-18)
(8.810977 8.876562 -1.694468e-18)
(8.09082 8.823947 -1.333195e-18)
(7.38129 8.716788 -8.841455e-19)
(6.68454 8.546032 4.389771e-21)
(5.999252 8.312936 -4.432464e-21)
(5.330057 8.025172 0)
(4.688598 7.673751 7.297973e-19)
(4.069051 7.268279 -2.083703e-20)
(3.485879 6.810593 1.548408e-18)
(2.938832 6.306734 1.880476e-18)
(2.437201 5.758834 -2.226848e-18)
(1.979515 5.170857 -1.294319e-18)
(1.570985 4.543259 -3.465525e-21)
(1.211871 3.879248 1.589816e-18)
(0.9091625 3.187418 2.744188e-20)
(0.6549788 2.479805 1.786625e-18)
(0.4740819 1.743757 1.500028e-20)
(0.3340335 0.9980302 -1.003279e-18)
(0.2545002 0.2740715 -5.084435e-19)
(0.2379731 -0.4303732 -6.221541e-23)
(0.3196289 -1.179157 4.853272e-19)
(0.4293796 -1.970537 7.465798e-21)
(0.6028801 -2.752218 -8.940072e-19)
(0.8393343 -3.508749 1.677014e-18)
(1.131636 -4.236993 0)
(1.480947 -4.934732 -3.988904e-21)
(1.881307 -5.596634 -1.238602e-18)
(2.341491 -6.221198 1.09421e-18)
(2.843172 -6.812528 -1.789066e-18)
(3.393924 -7.351794 1.817774e-20)
(3.99185 -7.843583 -1.800637e-20)
(4.620315 -8.296567 -5.082675e-19)
(5.287374 -8.690805 0)
(5.994332 -9.029317 -3.921141e-19)
(6.718457 -9.324969 2.581765e-20)
(7.461071 -9.552853 -6.57715e-20)
(8.221079 -9.709027 -1.6845e-18)
(8.991808 -9.809221 -2.249361e-18)
(9.768291 -9.849724 -1.887517e-20)
(10.55019 -9.824071 3.057851e-18)
(11.32867 -9.740111 -5.151095e-20)
(12.09262 -9.593534 -3.925431e-18)
(12.83596 -9.378856 0)
(13.55548 -9.097812 4.713396e-18)
(14.2514 -8.760648 5.160477e-18)
(14.91603 -8.375454 5.32398e-18)
(15.54491 -7.93124 -5.640307e-18)
(16.12925 -7.437774 6.016221e-18)
(16.66659 -6.89444 0)
(17.15659 -6.308979 -1.310278e-17)
(17.59081 -5.695915 1.36268e-17)
(17.96136 -5.044765 -1.608223e-19)
(18.26332 -4.361909 -3.470336e-18)
(18.49556 -3.655425 -3.502455e-18)
(18.65022 -2.947038 0)
(18.71112 -2.241732 1.768886e-18)
(18.66727 -1.572092 -1.726937e-18)
(18.49808 -0.9779887 8.293989e-19)
(18.39215 -0.6079208 -1.96229e-19)
(18.85738 -0.3805612 -3.645132e-19)
(19.06348 0.3100125 1.129581e-20)
(18.31604 1.285653 -1.517636e-18)
(16.88738 1.927358 2.004496e-20)
(12.74041 1.572197 0)
(1.69008 -1.436677 0)
(-3.580779 -2.991962 -1.479602e-19)
(-3.329931 -1.405214 1.78715e-19)
(-2.487767 0.03925654 0)
(-0.315366 1.145621 0)
(1.828228 1.558715 0)
(2.700154 1.632296 1.967966e-18)
(2.602968 1.731463 -2.752504e-18)
(2.499321 2.293881 4.626228e-19)
(2.683327 2.957275 2.885184e-19)
(4.232129 3.134503 6.404922e-21)
(2.0085 0.1922385 1.759316e-19)
(-0.5768608 -1.726802 9.407307e-19)
(-1.824249 -2.46042 3.558317e-20)
(-2.708788 -3.344001 8.201606e-21)
(-3.211919 -3.846457 -4.424123e-20)
(-3.282818 -3.759213 -4.301044e-20)
(-2.865715 -2.92208 2.467473e-18)
(-1.93347 -1.368537 0)
(-0.6706482 0.7496444 1.706404e-18)
(1.04629 2.263915 -2.340659e-18)
(1.995746 2.484729 2.249812e-18)
(1.122128 0.3314382 0)
(-0.5015061 -1.343278 0)
(-0.4388644 0.4028601 -2.914868e-20)
(-0.1227025 0.4417091 -1.985114e-18)
(0.01678951 -0.7143329 1.054779e-18)
(-0.2265869 -3.887636 -9.019165e-19)
(-0.6259611 -6.859099 0)
(-0.8116195 -7.08396 0)
(-0.910305 -6.808396 0)
(-0.8203914 -6.57127 -4.521919e-19)
(-0.651227 -5.831118 -1.99885e-19)
(-0.4760324 -4.816265 -1.549273e-19)
(-0.5331657 -3.621935 4.945285e-20)
(-0.465768 -2.387485 0)
(-0.4805772 -1.148367 -1.459358e-19)
(-0.6187483 0.1349616 0)
(-0.6927534 1.190951 -3.34493e-19)
(-0.7611153 1.988743 0)
(-0.8617887 2.521176 0)
(-0.9228407 2.820926 -5.137546e-19)
(-0.9196706 2.871825 -1.077488e-18)
(-0.8126975 2.696001 1.049895e-18)
(-0.6874797 2.426818 -9.982502e-19)
(-0.627524 1.903405 9.651897e-19)
(-0.6172127 1.164205 0)
(-0.4669113 0.7963837 1.893143e-18)
(0.3322659 0.227542 9.480608e-19)
(0.853349 -0.7630438 1.094779e-18)
(0.167256 -0.5751011 -3.550991e-20)
(-0.4547135 -0.02441862 -4.669748e-20)
(-1.104246 0.6971007 -1.558564e-18)
(-1.751192 1.267681 3.769995e-18)
(-2.429957 1.807057 2.123165e-18)
(-2.717621 2.188494 6.667787e-20)
(-2.380426 2.274086 1.946702e-18)
(-1.324228 1.977679 1.257523e-18)
(-0.1616658 1.761731 4.756504e-19)
(1.816712 -0.3006754 0)
(2.768973 -2.148095 -3.122262e-20)
(4.10713 -2.55355 0)
(5.064715 -2.383047 1.098341e-18)
(5.546303 -2.423416 1.499468e-18)
(5.055181 -2.59699 1.995855e-18)
(3.819575 -2.599153 -1.135427e-19)
(2.417858 -1.863557 7.059079e-20)
(1.389563 -0.1608238 -8.789573e-18)
(1.599185 1.64094 0)
(6.611338 1.690702 -7.278043e-19)
(15.16539 0.06386479 -6.305111e-19)
(16.26958 -0.282526 8.73831e-19)
(16.49613 0.2035801 2.331964e-19)
(16.48895 0.9988673 0)
(16.22738 1.514997 4.936187e-19)
(16.27323 1.929814 0)
(16.36124 2.46987 0)
(16.3587 3.063723 2.292653e-18)
(16.27888 3.694123 -3.514573e-20)
(16.12373 4.299257 4.183568e-20)
(15.88823 4.897292 -2.210156e-18)
(15.58287 5.455215 4.4579e-18)
(15.2169 5.987946 -4.254698e-18)
(14.80637 6.500099 -4.095818e-18)
(14.35405 6.955575 1.936187e-19)
(13.84687 7.374743 -1.185186e-19)
(13.29834 7.739541 -1.035902e-19)
(12.70867 8.061863 -2.9637e-18)
(12.0898 8.330863 -2.988981e-18)
(11.44369 8.541983 -7.727651e-20)
(10.77625 8.710911 2.438489e-18)
(10.10254 8.825136 0)
(9.417693 8.870127 1.728103e-18)
(8.717045 8.855041 1.394935e-18)
(8.015223 8.790151 1.012736e-18)
(7.326378 8.671983 7.27488e-19)
(6.649323 8.492731 0)
(5.983755 8.251662 0)
(5.331042 7.96078 -3.157833e-19)
(4.708557 7.605726 0)
(4.102692 7.200881 0)
(3.534807 6.744759 1.332835e-18)
(3.003726 6.243385 -3.063295e-20)
(2.511327 5.701442 -1.153404e-20)
(2.061016 5.119492 -3.510242e-20)
(1.660369 4.498181 2.41844e-18)
(1.309931 3.840607 0)
(1.017302 3.15539 0)
(0.7597358 2.459645 1.510616e-18)
(0.5845156 1.73048 7.534339e-19)
(0.4411742 0.9884074 8.084262e-19)
(0.3575597 0.2697455 -4.159567e-19)
(0.3398644 -0.4379161 0)
(0.4374046 -1.180194 -2.827139e-22)
(0.5490748 -1.964151 2.370319e-20)
(0.7128022 -2.738913 7.090252e-19)
(0.9417276 -3.485648 -1.374406e-18)
(1.22809 -4.201888 -3.821131e-20)
(1.571178 -4.887723 1.157053e-18)
(1.964341 -5.538737 3.381916e-20)
(2.417203 -6.154239 1.770927e-18)
(2.903415 -6.740695 -1.55798e-20)
(3.439048 -7.275587 -1.177801e-18)
(4.026294 -7.764528 3.022027e-20)
(4.638498 -8.218714 0)
(5.283614 -8.616434 1.150529e-19)
(5.975085 -8.958272 0)
(6.683619 -9.259921 0)
(7.403128 -9.498383 -1.040581e-18)
(8.142732 -9.664942 2.773387e-18)
(8.895594 -9.776777 6.08185e-20)
(9.650604 -9.83289 -1.176228e-19)
(10.41179 -9.82423 -2.512172e-18)
(11.16882 -9.761838 -2.815992e-18)
(11.91186 -9.638403 3.340733e-18)
(12.63312 -9.4511 -3.599321e-18)
(13.33018 -9.200654 -7.739526e-20)
(14.00846 -8.891648 0)
(14.65507 -8.539451 -4.608993e-18)
(15.26812 -8.128037 9.663055e-18)
(15.83756 -7.671267 -5.119184e-18)
(16.36077 -7.165981 0)
(16.84108 -6.616475 9.482313e-20)
(17.26709 -6.038267 -5.460086e-18)
(17.63107 -5.419145 -8.697792e-20)
(17.929 -4.763992 1.397252e-19)
(18.15876 -4.08146 -8.975757e-20)
(18.31457 -3.391028 0)
(18.38379 -2.692152 -2.819751e-18)
(18.35758 -2.000861 1.34413e-18)
(18.24297 -1.354965 6.551561e-19)
(18.06815 -0.8341383 -1.00562e-20)
(18.1841 -0.4200793 3.005537e-19)
(18.57782 0.3281169 5.997101e-19)
(18.39464 1.307911 0)
(17.82824 1.820942 1.046238e-18)
(16.23953 1.301274 -4.67241e-20)
(6.466447 -1.42206 1.634388e-18)
(0.8134675 -2.151845 0)
(0.5234076 -0.1699117 0)
(1.288284 1.741419 0)
(2.799116 2.846842 4.559144e-20)
(4.374605 2.959815 2.093996e-18)
(5.114773 2.865 -1.617285e-18)
(4.806784 2.872167 1.14714e-18)
(4.062611 3.205127 -7.108997e-19)
(3.075635 3.254953 -2.443883e-19)
(3.446755 2.244757 0)
(1.206118 -1.046953 -1.500405e-19)
(-0.5314878 -2.058412 -7.570023e-19)
(-1.745523 -2.656689 1.681478e-18)
(-2.612962 -3.441243 -5.892311e-20)
(-3.170806 -3.882756 -7.695324e-20)
(-3.328549 -3.729501 7.791759e-20)
(-3.005292 -2.768221 0)
(-2.178732 -1.181069 -1.624119e-18)
(-1.079172 0.8243588 4.950498e-20)
(0.8121085 2.188146 3.802869e-18)
(1.94224 2.192771 -1.915697e-18)
(1.692811 0.9066576 1.011314e-19)
(0.1593651 -0.1700525 -1.72398e-18)
(-0.4444012 0.4856301 0)
(-0.2628665 -0.3808883 -1.653403e-18)
(-0.1880647 -2.725803 8.150775e-19)
(-0.3028372 -5.66353 -4.474903e-20)
(-0.5421154 -7.126942 7.580739e-19)
(-0.7740246 -6.865613 -3.600927e-20)
(-0.9094449 -6.862274 1.275627e-20)
(-0.8649696 -6.547764 3.769629e-19)
(-0.778567 -5.814452 -2.213887e-21)
(-0.6336816 -4.798941 2.165087e-21)
(-0.7401915 -3.626487 2.29262e-21)
(-0.6751996 -2.416459 6.501137e-20)
(-0.6898519 -1.21493 1.189388e-19)
(-0.8237971 0.116249 -1.213279e-19)
(-0.8329422 1.132515 2.736412e-19)
(-0.8628715 1.938207 0)
(-0.9405121 2.522394 3.526804e-19)
(-0.9739756 2.886649 4.462999e-19)
(-0.9428844 2.984439 8.84937e-19)
(-0.8142255 2.817088 0)
(-0.6454803 2.486174 0)
(-0.5536446 1.977742 -7.898558e-19)
(-0.5435143 1.232119 -2.405604e-20)
(-0.2734123 0.7159257 -7.484266e-19)
(0.6715118 0.02357865 -7.751476e-19)
(0.9154657 -0.7890461 -8.732591e-19)
(0.1298385 -0.7138978 9.827993e-19)
(-0.5345105 -0.1992535 -1.076511e-18)
(-1.26126 0.5854013 1.222813e-18)
(-2.015471 1.283316 -1.491673e-18)
(-2.660442 1.872318 0)
(-2.857365 2.293668 0)
(-2.387288 2.449621 -1.642752e-18)
(-1.192713 2.143237 0)
(0.1645005 1.863983 -5.561932e-21)
(1.407495 0.4185154 7.956993e-21)
(3.389854 -2.101328 5.812582e-20)
(5.661794 -3.051307 -4.941423e-21)
(7.030249 -3.082286 -2.088298e-20)
(7.687066 -3.255461 -1.200019e-18)
(7.537134 -3.594926 1.757238e-20)
(7.010033 -3.876304 1.218285e-18)
(6.411588 -3.268612 -8.085566e-20)
(5.644632 -1.154076 3.520846e-18)
(6.628261 1.252897 -7.805405e-20)
(11.5481 1.921886 2.237336e-18)
(16.13744 0.5303863 1.737686e-20)
(15.52871 -0.151341 -2.914843e-21)
(16.03489 0.2414593 -3.908405e-19)
(16.21507 0.9370549 -3.114203e-21)
(16.20144 1.379258 -4.117798e-19)
(16.30923 1.746912 -2.711989e-20)
(16.39423 2.22154 -8.533742e-19)
(16.40071 2.759686 1.789658e-18)
(16.32113 3.366282 -1.803198e-18)
(16.16464 3.963507 3.523905e-18)
(15.92837 4.56502 1.934238e-18)
(15.6258 5.133183 0)
(15.25792 5.684818 0)
(14.84733 6.218101 3.321397e-18)
(14.39526 6.692384 3.168365e-18)
(13.88773 7.129496 0)
(13.34136 7.505816 -8.313189e-20)
(12.75153 7.841712 2.687723e-18)
(12.12979 8.128969 2.381468e-18)
(11.4843 8.351336 2.072022e-18)
(10.82242 8.525393 -5.426892e-20)
(10.15069 8.651085 -1.538135e-18)
(9.463248 8.711128 3.789106e-20)
(8.767011 8.701441 -3.823821e-20)
(8.073295 8.639741 -8.535147e-19)
(7.387485 8.530212 5.459794e-19)
(6.706918 8.365255 0)
(6.049263 8.127866 0)
(5.399222 7.84615 5.331221e-19)
(4.785543 7.496172 -8.192206e-21)
(4.184131 7.099048 -7.85859e-21)
(3.631686 6.646419 -1.027777e-18)
(3.109442 6.151339 -2.570089e-18)
(2.610888 5.625654 1.434337e-18)
(2.163747 5.055625 -1.710452e-18)
(1.767984 4.445053 -9.458458e-19)
(1.426287 3.796349 -3.223772e-20)
(1.142134 3.115898 0)
(0.8792044 2.43513 -1.179005e-18)
(0.7185933 1.716979 -3.969311e-20)
(0.5697695 0.9783298 -6.719228e-19)
(0.4826131 0.2650176 3.562547e-19)
(0.46585 -0.4465712 -2.556494e-23)
(0.579249 -1.178644 -3.452598e-19)
(0.683646 -1.957153 2.937921e-20)
(0.8416379 -2.721117 -6.182445e-19)
(1.061396 -3.449404 1.126982e-18)
(1.341243 -4.148331 -1.07885e-18)
(1.679749 -4.820552 2.812272e-21)
(2.068779 -5.45931 8.73667e-19)
(2.525925 -6.062659 -1.410464e-18)
(3.00301 -6.643073 1.190245e-18)
(3.527598 -7.172199 8.824019e-19)
(4.115563 -7.652517 8.438391e-21)
(4.735362 -8.094621 8.848887e-21)
(5.373271 -8.485392 -8.661044e-20)
(6.048404 -8.828384 -1.656407e-19)
(6.756685 -9.121843 2.023826e-20)
(7.475372 -9.349984 7.556343e-19)
(8.207168 -9.510272 -2.229341e-18)
(8.952217 -9.618279 1.403637e-18)
(9.712172 -9.656905 -5.820604e-20)
(10.47085 -9.638225 -2.020519e-18)
(11.22051 -9.571643 4.634869e-18)
(11.96388 -9.434638 8.467804e-20)
(12.68245 -9.236562 2.791752e-18)
(13.38018 -8.969517 -3.237634e-18)
(14.06058 -8.643352 1.001631e-19)
(14.70623 -8.277718 -3.63926e-18)
(15.31997 -7.847375 -3.707953e-18)
(15.88882 -7.374034 1.26851e-19)
(16.41368 -6.844768 -4.225068e-18)
(16.8945 -6.273055 4.34715e-18)
(17.32044 -5.675218 0)
(17.68251 -5.038523 0)
(17.97686 -4.370014 2.324722e-18)
(18.20467 -3.689595 2.304035e-18)
(18.36212 -3.003617 0)