/*--------------------------------*- C++ -*----------------------------------*\
| =========                 |                                                 |
| \\      /  F ield         | OpenFOAM: The Open Source CFD Toolbox           |
|  \\    /   O peration     | Version:  2406                                  |
|   \\  /    A nd           | Website:  www.openfoam.com                      |
|    \\/     M anipulation  |                                                 |
\*---------------------------------------------------------------------------*/
FoamFile
{
    version     2.0;
    format      ascii;
    arch        "LSB;label=32;scalar=64";
    class       surfaceScalarField;
    location    "2.44";
    object      phi;
}
// * * * * * * * * * * * * * * * * * * * * * * * * * * * * * * * * * * * * * //

dimensions      [0 3 -1 0 0 0 0];

oriented        oriented;

internalField   nonuniform List<scalar> 
326221
(
-0.002644182
-0.006185372
0.008829554
-0.001850687
-0.0007934952
0.001170374
-0.003021061
0.001404368
-0.0002339942
-0.0002166303
0.001620999
-0.0009033689
0.0006867386
-0.0003662849
-0.0005370841
0.0001777741
-0.0005440589
-4.530151e-05
0.0002230756
-0.0002193185
0.000174017
-4.327583e-05
-0.0001760426
-0.0001553259
0.00011205
-0.0005234508
0.000368125
-0.0006581577
0.0001347069
-0.0004397917
-0.000218366
3.784866e-05
-0.0004776404
0.0006260734
-0.0005882248
0.001122077
-0.0004960034
0.001226944
-0.0001048672
0.0007816986
0.0004452455
0.0003221961
0.0004595024
0.0006276556
-0.0003054595
0.001416841
-0.0007891852
0.001362715
5.412615e-05
0.0005461321
0.0008165826
-0.001120562
0.001666694
-0.002595179
0.001474617
-0.002923392
0.0003282129
-0.002586603
-0.0003367888
-0.001988064
-0.000598539
-0.001060713
-0.0009273512
8.383077e-05
-0.001144544
0.001391475
-0.001307644
0.00163764
-0.0002461643
0.0006941305
0.0009435091
-0.000537152
0.001231282
-0.0004954282
-4.172377e-05
0.0004235237
-0.0009189519
0.0006715097
-0.0002479859
0.0007179087
-4.639902e-05
0.001084174
-0.0003662653
0.0007429664
0.0003412075
-0.0008226553
0.001565622
-0.002073634
0.001250979
-0.002054594
-1.904047e-05
-0.001271076
-0.0007835177
-0.0001483001
-0.001122776
0.001664102
-0.001812403
0.001770649
-0.0001065464
-0.003673998
0.005444647
-0.001325217
-0.002348781
0.0005658855
-0.001891102
0.0008356011
-0.0002697156
0.001066535
-0.0002309341
0.001186954
-0.000120419
0.000956679
0.0002302753
0.0005997837
0.0003568952
0.0003836384
0.0002161454
0.0004595169
-7.587857e-05
0.0005796205
-0.0001201036
0.0003237575
0.000255863
4.636429e-05
0.0002773933
8.533847e-05
-3.897419e-05
0.0001442579
-5.891941e-05
-1.258866e-05
0.0001568465
-0.0001639833
0.0001513946
-9.163874e-05
-7.234457e-05
-0.0001587039
6.706519e-05
-0.0001682774
9.573457e-06
0.0003892489
-0.0005575263
0.001041082
-0.0006518329
0.001489136
-0.0004480547
0.001819371
-0.0003302341
0.002011091
-0.00019172
0.00163432
0.0003767702
0.0005570238
0.001077297
-0.0006336755
0.001190699
-0.001309927
0.0006762519
-0.001689841
0.0003799135
-0.001616504
-7.333652e-05
-0.0008510462
-0.0007654582
-0.0002527279
-0.0005983183
6.569167e-05
-0.0003184195
0.0005274913
-0.0004617996
0.00151981
-0.0009923184
0.002802036
-0.001282227
0.002173979
0.0006280574
-0.0002387223
0.002412701
-0.0008856899
0.0006469676
0.0002539107
-0.001139601
0.001109433
-0.0008555222
0.001216642
-0.0001072092
0.0009412288
0.0002754132
0.0005785215
0.0003627073
0.000162403
0.0004161185
-0.0003246948
0.0004870978
-0.0008093193
0.0004846244
-0.001213646
0.0004043268
-0.001525256
0.0003116096
-0.001752432
0.0002271763
-0.001917157
0.0001647245
-0.002039224
0.0001220676
-0.002131766
9.254227e-05
-0.002203719
7.195306e-05
-0.002255354
5.163457e-05
-0.002293083
3.772926e-05
-0.00231876
2.567674e-05
-0.002328261
9.500629e-06
-0.002325064
-3.196874e-06
-0.00231566
-9.404097e-06
-0.002304713
-1.094716e-05
-0.002283444
-2.12682e-05
-0.002262658
-2.078604e-05
-0.00223873
-2.392798e-05
-0.00220463
-3.409983e-05
-0.002170272
-3.435818e-05
-0.002188827
1.855506e-05
-0.002138276
-5.055137e-05
-0.00207291
-6.536594e-05
-0.001993709
-7.920066e-05
-0.001889349
-0.0001043603
-0.001771208
-0.0001181413
-0.00164245
-0.0001287583
-0.001503411
-0.0001390388
-0.001346646
-0.0001567644
-0.001176867
-0.0001697798
-0.000996672
-0.0001801945
-0.0008039481
-0.0001927239
-0.0005875777
-0.0002163704
-0.0003704944
-0.0002170833
-0.0001378365
-0.0002326579
8.552981e-05
-0.0002233663
0.0003847459
-0.0002992161
0.0006289782
-0.0002442323
0.0008592461
-0.0002302679
0.001111719
-0.0002524727
0.001331835
-0.0002201162
0.00144811
-0.0001162752
0.001449872
-1.762004e-06
0.001415063
3.480877e-05
0.001414344
7.192712e-07
0.001445456
-3.111164e-05
0.001468686
-2.322976e-05
0.001394175
7.451065e-05
0.001109845
0.0002843301
0.0006996296
0.0004102151
0.000417054
0.0002825756
0.0004499963
-3.294234e-05
0.001805806
-0.00135581
0.003941892
-0.002136085
0.00107689
0.002865002
0.001463984
-0.0003870936
0.001964208
-0.0005002247
0.002022406
-5.819743e-05
0.001415481
0.0006069247
0.000286699
0.001128782
-0.00126177
0.001548469
-0.002642628
0.001380857
-0.003179288
0.0005366601
-0.002979849
-0.0001994388
-0.002118477
-0.0008613717
-0.001228313
-0.000890164
-0.001168951
-5.93622e-05
-0.001672184
0.0005032334
-0.002401192
0.000729008
-0.003239354
0.0008381614
-0.003718743
0.0004793896
-0.003318699
-0.0004000443
-0.002162533
-0.001156166
-0.0008888208
-0.001273712
0.0002075433
-0.001096364
0.001392429
-0.001184885
0.00241397
-0.001021542
0.003210451
-0.0007964808
0.003952776
-0.0007423249
0.004658764
-0.0007059874
0.005229409
-0.000570645
0.005576294
-0.0003468851
0.005698099
-0.0001218049
0.005536389
0.0001617094
0.00497342
0.0005629693
0.003792339
0.001181081
0.001733058
0.002059281
-0.0006289369
0.002361995
-0.001962125
0.001333188
-0.001195565
-0.00076656
-0.0003911338
-0.0008044312
-0.001118795
0.000727661
-0.002907708
0.001788913
-0.003416553
0.0005088448
-0.002007402
-0.001409151
-0.0003146421
-0.00169276
0.0002736098
-0.0005882519
0.0001439258
0.000129684
-0.0002437585
0.0003876842
-0.0009377397
0.0006939813
-0.0007628298
-0.0001749099
0.001730152
-0.002492982
0.002503715
-0.0007735623
-0.005890758
0.008394473
-0.006179295
0.000288537
-0.005331651
-0.0008476447
-0.004996053
-0.000335598
-0.004661392
-0.000334661
-0.004410461
-0.0002509307
-0.004181564
-0.0002288976
-0.003982675
-0.0001988884
-0.003716348
-0.0002663268
-0.003579177
-0.0001371711
-0.003463035
-0.0001161419
-0.003356206
-0.000106829
-0.003261192
-9.501409e-05
-0.00316979
-9.140222e-05
-0.003082646
-8.714419e-05
-0.002999519
-8.312687e-05
-0.002925471
-7.404831e-05
-0.002857876
-6.759499e-05
-0.002793001
-6.487444e-05
-0.002728895
-6.410589e-05
-0.002669135
-5.976045e-05
-0.002611855
-5.727981e-05
-0.002558792
-5.306265e-05
-0.002511564
-4.722856e-05
-0.002463008
-4.855545e-05
-0.002414228
-4.878093e-05
-0.002364921
-4.930618e-05
-0.002318477
-4.644453e-05
-0.002277546
-4.093087e-05
-0.00224059
-3.69558e-05
-0.002201633
-3.895683e-05
-0.002163033
-3.860053e-05
-0.002122357
-4.06758e-05
-0.002087051
-3.53055e-05
-0.002054224
-3.282779e-05
-0.002019653
-3.457097e-05
-0.001984729
-3.4924e-05
-0.001948802
-3.592641e-05
-0.001916746
-3.205643e-05
-0.001887406
-2.933981e-05
-0.001918725
3.131853e-05
-0.001902982
-1.574268e-05
-0.001881649
-2.133325e-05
-0.001860342
-2.13065e-05
-0.001841988
-1.835407e-05
-0.001822884
-1.910413e-05
-0.001806068
-1.68163e-05
-0.001791223
-1.484437e-05
-0.001777076
-1.414745e-05
-0.001759461
-1.761472e-05
-0.001741298
-1.816304e-05
-0.001727074
-1.422434e-05
-0.001715511
-1.15629e-05
-0.001706658
-8.85316e-06
-0.001693648
-1.30099e-05
-0.001677277
-1.637064e-05
-0.001663542
-1.373532e-05
-0.001651644
-1.189789e-05
-0.001637079
-1.456508e-05
-0.001624475
-1.260414e-05
-0.001609336
-1.513885e-05
-0.001591605
-1.773092e-05
-0.001572841
-1.876359e-05
-0.001550255
-2.258685e-05
-0.001506697
-4.355772e-05
-0.00144967
-5.702729e-05
-0.001390213
-5.945669e-05
-0.001310389
-7.982382e-05
-0.001201111
-0.0001092777
-0.001003328
-0.0001977832
-0.0007040743
-0.0002992538
0.0001315584
-0.0008356327
0.0008514452
-0.0007198869
0.001102132
-0.0002506871
0.001268437
-0.0001663048
0.001349239
-8.080179e-05
0.001404336
-5.509697e-05
0.001457181
-5.28455e-05
0.001495179
-3.799755e-05
0.001513483
-1.830401e-05
0.001529234
-1.575098e-05
0.001556471
-2.723683e-05
0.001582728
-2.625707e-05
0.001604971
-2.224267e-05
0.001620882
-1.591139e-05
0.001636256
-1.53737e-05
0.001651528
-1.527224e-05
0.001669923
-1.83949e-05
0.001686986
-1.706351e-05
0.001700587
-1.360029e-05
0.001714948
-1.436114e-05
0.001732877
-1.792926e-05
0.001749449
-1.657157e-05
0.001765456
-1.60076e-05
0.001784947
-1.949124e-05
0.001801808
-1.686044e-05
0.001824303
-2.249529e-05
0.001850166
-2.586324e-05
0.001871957
-2.179104e-05
0.001890458
-1.850087e-05
0.001911128
-2.066986e-05
0.00193485
-2.372214e-05
0.001951367
-1.651729e-05
0.001917662
3.370513e-05
0.001948673
-3.101055e-05
0.001986317
-3.764395e-05
0.002024872
-3.855477e-05
0.002064074
-3.920281e-05
0.002106238
-4.216406e-05
0.002146687
-4.044825e-05
0.002184299
-3.761244e-05
0.002224774
-4.047494e-05
0.002269473
-4.469897e-05
0.002318185
-4.871214e-05
0.0023621
-4.391516e-05
0.002404466
-4.236544e-05
0.002449595
-4.512908e-05
0.002498397
-4.880197e-05
0.002548423
-5.002639e-05
0.002603683
-5.525983e-05
0.002661266
-5.758268e-05
0.002719687
-5.842143e-05
0.002780572
-6.088519e-05
0.002838303
-5.773097e-05
0.002905902
-6.759874e-05
0.002976503
-7.060038e-05
0.003050278
-7.377504e-05
0.003129853
-7.957593e-05
0.003212244
-8.239078e-05
0.003303202
-9.095802e-05
0.003402424
-9.922193e-05
0.003504651
-0.0001022272
0.003615611
-0.0001109595
0.003741521
-0.0001259098
0.003888198
-0.0001466772
0.004165523
-0.0002773247
0.004374174
-0.0002086511
0.004611386
-0.0002372124
0.004876363
-0.000264977
0.005221101
-0.0003447379
0.005552246
-0.0003311445
0.006420385
-0.0008681398
0.0002350134
0.001118379
-0.0001693391
-0.001668927
0.001553775
-0.000686083
0.001852198
-0.0004647282
0.002069441
-0.0002980444
0.002240568
-0.0002262238
0.002396693
-0.0002089709
0.00253246
-0.0001737639
0.002644558
-0.0001304028
0.002745015
-0.0001162075
0.002847942
-0.0001301641
0.002945025
-0.0001233397
0.003036687
-0.0001139051
0.003119915
-9.913911e-05
0.003200082
-9.554108e-05
0.003275682
-9.087238e-05
0.003351441
-9.415371e-05
0.003423578
-8.920049e-05
0.003491772
-8.179451e-05
0.003557589
-8.017805e-05
0.003624265
-8.460469e-05
0.0036884
-8.070703e-05
0.003750345
-7.795263e-05
0.00381394
-8.308641e-05
0.003873679
-7.659944e-05
0.003936542
-8.535795e-05
0.004000202
-8.952296e-05
0.004062081
-8.366981e-05
0.00411995
-7.637058e-05
0.004179516
-8.02359e-05
0.004239407
-8.361288e-05
0.004297001
-7.411119e-05
0.004262391
6.831499e-05
0.004332658
-0.000101277
0.00440631
-0.0001112966
0.00448039
-0.0001126349
0.004554802
-0.0001136147
0.004630573
-0.0001179347
0.004706037
-0.0001159128
0.004778465
-0.0001100397
0.004853686
-0.0001156958
0.00492986
-0.0001208736
0.005010756
-0.0001296075
0.00508723
-0.0001203894
0.005164214
-0.0001193497
0.005241867
-0.0001227825
0.00532296
-0.0001298941
0.005404318
-0.0001313846
0.005490057
-0.0001409993
0.005578095
-0.0001456207
0.005666921
-0.0001472471
0.005759202
-0.0001531664
0.005848377
-0.0001469062
0.005946446
-0.0001656672
0.006045348
-0.0001695021
0.006149063
-0.0001774909
0.006255955
-0.0001864679
0.006367167
-0.000193602
0.006484078
-0.0002078696
0.006609226
-0.0002243698
0.006736709
-0.0002297107
0.006872774
-0.0002470238
0.00702114
-0.0002742757
0.007187457
-0.0003129945
0.007550174
-0.0006400413
0.007775837
-0.0004343145
0.008036074
-0.0004974495
0.008319799
-0.0005487017
0.008695463
-0.0007204025
0.009019536
-0.0006552169
0.00999126
-0.001839864
0.009215171
0.001011102
-0.009652778
0.008846194
0.001095121
-0.008685364
-0.001815059
-0.008363112
-0.0006578498
-0.007996801
-0.0007009724
-0.007725046
-0.0005226855
-0.007471366
-0.0004825775
-0.007253638
-0.0004166164
-0.006902447
-0.0006175179
-0.006743735
-0.0002958829
-0.006603557
-0.0002563203
-0.006471199
-0.0002391869
-0.00634983
-0.0002163833
-0.006231245
-0.000209987
-0.006118273
-0.0002001161
-0.006007852
-0.0001935476
-0.005906419
-0.000175481
-0.005808444
-0.0001655704
-0.005714906
-0.000158412
-0.005621092
-0.0001579206
-0.005532411
-0.000148441
-0.005444933
-0.0001447581
-0.005361564
-0.0001364315
-0.005282245
-0.0001265476
-0.005202524
-0.0001282763
-0.005123815
-0.0001274896
-0.005044795
-0.0001283264
-0.004969008
-0.0001222315
-0.004895892
-0.0001140474
-0.004826592
-0.000106256
-0.004754335
-0.0001112131
-0.004684279
-0.0001086567
-0.004611405
-0.0001135502
-0.004543213
-0.0001034975
-0.004475158
-0.0001008829
-0.004406285
-0.0001034436
-0.004336582
-0.0001046271
-0.004266187
-0.0001063211
-0.004198153
-0.0001000903
-0.00413079
-9.670301e-05
-0.004163578
6.410618e-05
-0.004108834
-7.048686e-05
-0.004052849
-7.731817e-05
-0.003995411
-7.874377e-05
-0.003940633
-7.313201e-05
-0.003883301
-7.643655e-05
-0.003827598
-7.251967e-05
-0.003771025
-7.141743e-05
-0.003714276
-7.089605e-05
-0.003653632
-7.825849e-05
-0.003592076
-7.971949e-05
-0.003531518
-7.478235e-05
-0.003470187
-7.289334e-05
-0.003408419
-7.062129e-05
-0.003340825
-8.060449e-05
-0.003269429
-8.776584e-05
-0.003196651
-8.65142e-05
-0.003122253
-8.629529e-05
-0.003041386
-9.543244e-05
-0.002958681
-9.530892e-05
-0.002868397
-0.000105423
-0.002771263
-0.0001148646
-0.002666676
-0.0001233511
-0.00255288
-0.0001363821
-0.002416018
-0.0001804204
-0.002263537
-0.0002095086
-0.00209931
-0.0002236829
-0.001898018
-0.0002811164
-0.001646317
-0.0003609786
-0.001324156
-0.0005199438
-0.0008634793
-0.0007599306
-0.001868451
0.001669292
-0.004178226
0.005373935
0.002528763
-0.001246564
0.003276863
-0.001248325
0.003482313
-0.0002636465
0.003245781
0.0008434558
0.002440955
0.001933608
0.0004898107
0.003499614
-0.002481156
0.004351824
-0.004642155
0.002697659
-0.00482544
-1.615337e-05
-0.003691978
-0.001994833
-0.002531796
-0.002050346
-0.002516751
-7.440731e-05
-0.003645467
0.00163195
-0.005303612
0.002387152
-0.006363766
0.001898315
-0.005896834
1.245772e-05
-0.004362925
-0.001933953
-0.002645969
-0.002873122
-0.001120678
-0.002799004
0.0002173925
-0.002434434
0.001673149
-0.002640642
0.002987144
-0.002335536
0.004055709
-0.001865045
0.00502771
-0.001714326
0.005957466
-0.001635744
0.006740019
-0.001353197
0.007274061
-0.0008809271
0.007576245
-0.0004239889
0.007669242
6.871207e-05
0.007543032
0.0006891794
0.007016259
0.001707854
0.005371678
0.003703862
0.001817515
0.005916158
-0.001742311
0.004893013
-0.002609691
0.0001008208
-0.002840837
-0.0005732854
-0.003965368
0.001852192
-0.004854589
0.002678134
-0.004115443
-0.0002303017
-0.002076598
-0.003447996
-0.0002229517
-0.003546406
0.0004975513
-0.001308755
0.0003935634
0.0002336719
0.0001001816
0.000681066
0.0002112893
0.0005828736
0.0008704272
-0.0008340478
0.002575583
-0.004198138
0.0008586873
0.0009433337
0.01809935
-0.00184028
0.004030739
-0.004539241
-0.0001285383
-0.003602844
0.0007069177
-0.001105172
0.001316054
-0.0008400705
0.001633073
-0.0004374381
0.00159338
0.0002699682
0.00131619
0.000634085
0.001020238
0.0005120982
0.0009265542
1.780477e-05
0.0009996543
-0.0001932037
0.0005328305
0.0007226868
0.0001103721
0.0006998517
0.0003184231
-0.0002470252
0.000495142
-0.0002356383
0.0003174718
0.0003345167
-0.0001009761
0.0005698426
-0.0004693347
0.000296014
-0.0006029861
0.0002007166
-0.0003341503
-0.0002592623
0.0005137486
-0.001405425
0.001351552
-0.001489636
0.001954711
-0.001051213
0.002402817
-0.0007783404
0.002794412
-0.0005833145
0.002860392
0.0003107895
0.001987233
0.001950456
-5.395516e-05
0.003231887
-0.001887276
0.002509573
-0.002767233
0.001259871
-0.002591463
-0.0002491065
-0.001519661
-0.001837261
-0.0008878391
-0.00123014
-0.0006773168
-0.0005289419
-0.0001331546
-0.001005962
0.0009252345
-0.002050707
0.002450512
-0.002807504
0.002636888
0.0004416818
0.0003999586
0.00464963
-0.0007826909
0.001829617
-0.0003850066
-0.001537285
-5.095021e-05
-0.001189579
0.0002776606
-0.00043582
-0.0003575222
0.000910596
-0.001470681
0.001475867
-0.00254174
0.001487177
-0.003378993
0.001324351
-0.003976244
0.001081875
-0.004366531
0.0007946137
-0.004607141
0.00055222
-0.004747843
0.0003678785
-0.004824614
0.000241495
-0.004860222
0.0001576763
-0.004866997
9.931707e-05
-0.004853328
5.828452e-05
-0.004821799
2.010525e-05
-0.004779235
-4.834753e-06
-0.00472915
-2.440802e-05
-0.004669981
-4.966916e-05
-0.004603881
-6.929678e-05
-0.004533156
-8.012895e-05
-0.004459154
-8.494925e-05
-0.004373938
-0.0001064838
-0.004284493
-0.0001102315
-0.004185342
-0.0001230783
-0.004069078
-0.0001503642
-0.003940942
-0.0001624943
-0.00388313
-3.925734e-05
-0.00372578
-0.0002079013
-0.003556989
-0.0002341568
-0.003372023
-0.0002641669
-0.003165559
-0.0003108238
-0.002948844
-0.0003348565
-0.002723033
-0.0003545686
-0.002487307
-0.0003747655
-0.002233876
-0.0004101952
-0.001965951
-0.0004377051
-0.00168417
-0.0004619753
-0.001386527
-0.0004903672
-0.001063204
-0.0005396927
-0.0007384688
-0.0005418187
-0.0003934382
-0.0005776885
-6.58582e-05
-0.0005509463
0.0003561814
-0.0007212557
0.0007018107
-0.0005898616
0.001031056
-0.0005595128
0.001388702
-0.0006101189
0.001721191
-0.0005526051
0.001933936
-0.0003290204
0.002001415
-6.924084e-05
0.00200173
3.449359e-05
0.002025296
-2.284725e-05
0.002092558
-9.837272e-05
0.002194761
-0.0001254334
0.002298631
-2.935903e-05
0.002209426
0.0003735354
0.001545134
0.001074507
0.0008988938
0.0009288155
0.001190392
-0.0003244404
0.00257682
-0.002742238
-0.003737491
-0.0009528732
0.0189976
-0.002632378
0.0008860091
-0.0003480169
-0.005305421
0.0002379787
-0.0008199898
-0.0009649326
0.00282391
-0.001510275
0.001232081
-0.0005908535
-0.001456506
0.0001977895
-0.001332702
6.85774e-06
0.0004140074
-0.0004747265
0.0006556012
-0.0005522528
-9.851638e-05
-0.0008287324
0.0003885297
-0.001066174
0.0006055669
-0.0009933839
6.191635e-05
-0.0006717566
-0.0005399933
-5.883804e-05
-0.001090559
0.000728648
-0.001375711
0.001470345
-0.001237701
0.001909673
-0.0005441955
0.001694406
0.0006605133
0.001137801
0.001016107
0.001346526
-0.0005141849
0.002157336
-0.001599994
0.001996659
0.000214803
-0.0001731672
0.002986409
-0.00310174
0.004595267
-0.004102147
0.002475024
-0.0039529
0.0001789658
-0.003447043
-0.0008426452
-0.002609618
-0.001435964
-0.001404778
-0.002132191
8.848888e-05
-0.002637811
0.001654033
-0.002873189
0.002445044
-0.001037175
0.001820793
0.001567761
6.028197e-05
0.002991793
0.0001633102
-0.000144752
0.001363572
-0.002119214
0.001589471
-0.0004738846
0.001744759
-0.0002016871
0.001695927
-0.0003174327
-0.0004121519
0.002449286
-0.002963562
0.004117032
-0.003567681
0.001855098
-0.00300629
-0.0005804318
-0.002064791
-0.001725017
-0.0007015292
-0.002486038
0.0007080042
-0.003221936
-5.13827e-05
0.0006528405
0.009424003
0.001172158
-0.01157765
0.02940309
-0.00290635
0.004964517
-0.001456835
-0.006754936
-0.00081834
-0.001458485
-0.001945773
0.003951343
-0.002098252
0.00138456
-0.0009602064
-0.002594551
8.552331e-05
-0.002378432
-1.516269e-05
0.0005146934
-0.0007787184
0.001419157
-0.001143007
0.0002657725
-0.001390559
0.000636081
-0.001435203
0.0006502115
-0.001330767
-4.251939e-05
-0.001040851
-0.0008299092
-0.000348362
-0.001783048
0.0006156656
-0.002339738
0.001549474
-0.002171509
0.002180311
-0.001175032
0.002149181
0.0006916427
0.001632456
0.001532833
0.001813537
-0.000695266
0.002599485
-0.002385942
0.00166033
0.001153958
-0.001794702
0.00644144
-0.004722713
0.007523278
-0.005188029
0.00294034
-0.005049935
4.087146e-05
-0.00447571
-0.00141687
-0.003482736
-0.002428938
-0.002023062
-0.003591866
-0.0001502538
-0.004510619
0.001738334
-0.004761777
0.00286165
-0.002160491
0.002937913
0.001491498
0.00189884
0.004030866
0.001767942
-1.385407e-05
0.002567492
-0.002918764
0.002600931
-0.0005073233
0.002479948
-8.070439e-05
0.0009940211
0.001168494
-0.002624764
0.006068071
-0.004905068
0.006397336
-0.004934285
0.001884315
-0.004250222
-0.001264495
-0.003124705
-0.002850534
-0.001702893
-0.003907849
-0.0007528909
-0.004171938
-0.001515423
0.001415372
-0.004866022
0.0127746
-0.002681876
-0.006723387
-0.0005543448
-0.005730375
0.0008167966
-0.002476313
0.001615541
-0.001638814
0.001984276
-0.0008061738
0.001984808
0.0002694367
0.001754435
0.0008644581
0.001459118
0.0008074148
0.001273779
0.0002031438
0.001308363
-0.0002277876
0.0006884148
0.001342635
0.0001621597
0.001226107
0.0005118613
-0.0005967267
0.0007815342
-0.0005053112
0.0006164237
0.0004996272
9.013711e-05
0.001096129
-0.0005755533
0.0009617044
-0.0007781267
0.0004032899
-0.0002819657
-0.0007554233
0.000766953
-0.002454344
0.001739944
-0.002462627
0.002425486
-0.001736755
0.00293039
-0.001283244
0.003323279
-0.000976204
0.003469471
0.0001645974
0.003062805
0.002357123
0.001013403
0.005281289
-0.001624003
0.005146978
-0.003232122
0.00286799
-0.003356318
-0.0001249104
-0.002541674
-0.002651904
-0.002203902
-0.001567913
-0.002132136
-0.0006007071
-0.001561588
-0.001576511
-0.0003139652
-0.00329833
0.001087151
-0.004208621
0.001987379
-0.0004585459
0.000795525
0.005841484
-0.0010872
0.003712342
-0.002284037
-0.0003404478
-0.003040267
-0.0004333481
-0.003347782
-0.0001283058
-0.003971187
0.001534001
-0.004912147
0.002416827
-0.005657179
0.002232209
-0.006080316
0.001747487
-0.006281727
0.001283286
-0.006358159
0.0008710457
-0.006376399
0.0005704607
-0.006364638
0.000356117
-0.006335826
0.000212683
-0.006294741
0.0001165908
-0.006242749
4.732565e-05
-0.006182709
-1.755826e-06
-0.006113694
-4.890912e-05
-0.006039948
-7.858167e-05
-0.005960941
-0.0001034141
-0.005873223
-0.0001373879
-0.005778866
-0.0001636532
-0.005679337
-0.0001796582
-0.005576181
-0.0001881048
-0.005458968
-0.0002236969
-0.0053359
-0.0002332995
-0.005199953
-0.0002590253
-0.00504265
-0.0003076675
-0.004868784
-0.00033636
-0.004783749
-0.0001242927
-0.004576076
-0.0004155745
-0.004358227
-0.0004520059
-0.004123146
-0.0004992473
-0.003864406
-0.0005695643
-0.003595897
-0.0006033649
-0.003317347
-0.0006331191
-0.003027389
-0.0006647236
-0.002716469
-0.0007211147
-0.002389039
-0.0007651355
-0.002045405
-0.0008056096
-0.001683142
-0.0008526301
-0.001291275
-0.0009315592
-0.0009001844
-0.0009329096
-0.0004871823
-0.0009906906
-9.413704e-05
-0.0009439916
0.0004102987
-0.001225691
0.0008243486
-0.001003911
0.001217231
-0.0009523948
0.00164116
-0.001034048
0.002073056
-0.0009845013
0.002390918
-0.0006468824
0.002529231
-0.0002075537
0.002548846
1.487866e-05
0.002561623
-3.562454e-05
0.002615405
-0.0001521545
0.00271736
-0.0002273882
0.002864682
-0.0001766807
0.002983446
0.0002547714
0.002665675
0.001392277
0.002203464
0.001391027
0.002533492
-0.0006544681
0.003856951
-0.004065698
0.005045493
-0.004926033
0.002902132
0.007517296
0.003563789
-0.001908221
0.00441109
-0.002095626
0.004547577
-0.000400133
0.004162333
0.0012287
0.003498302
0.002597639
0.002113664
0.004884252
-0.001095818
0.007561306
-0.004820637
0.006422478
-0.006110979
0.001274188
-0.005218446
-0.002887366
-0.004050032
-0.003218761
-0.004242858
0.0001184185
-0.00589289
0.003281982
-0.007835254
0.004329517
-0.008369184
0.002432245
-0.007060886
-0.00129584
-0.005097084
-0.003897755
-0.003181178
-0.004789028
-0.001412437
-0.004567745
0.0001819608
-0.004028833
0.001914637
-0.004373318
0.003503509
-0.003924409
0.004825257
-0.003186793
0.006013219
-0.002902289
0.007138404
-0.002760929
0.008086658
-0.002301452
0.00874058
-0.001534848
0.009116565
-0.0007999738
0.009205857
-2.058056e-05
0.009021376
0.0008736612
0.00859825
0.00213098
0.007731687
0.004570425
0.004955823
0.008692022
0.0001035912
0.009745245
-0.003260381
0.003464793
-0.004718621
0.0008849554
-0.005610004
0.002743575
-0.005547205
0.002615334
-0.004312664
-0.001464842
-0.001978383
-0.005782277
9.767278e-05
-0.005622461
0.0009385124
-0.002149595
0.0007686278
0.0004035566
0.0008424294
0.0006072643
0.001014481
0.0004108217
0.001768503
-0.001588069
0.002767117
-0.005196752
-0.001186697
0.004897148
-0.01114923
0.02806189
-0.01186804
0.001813935
-0.01089626
-0.002786843
-0.01048242
-0.00107169
-0.01007465
-0.001108741
-0.009770589
-0.000826747
-0.009490367
-0.0007628003
-0.009255294
-0.0006516885
-0.008852165
-0.001020648
-0.008678451
-0.0004695968
-0.008521086
-0.0004136847
-0.008371898
-0.0003883748
-0.008234003
-0.0003542786
-0.008098409
-0.0003455811
-0.007968996
-0.0003295292
-0.007841446
-0.0003210973
-0.007723074
-0.000293853
-0.007607111
-0.0002815332
-0.007495951
-0.0002695722
-0.007383783
-0.0002700888
-0.007277094
-0.0002551298
-0.007170866
-0.0002509862
-0.007068452
-0.0002388452
-0.006969754
-0.0002252458
-0.006870347
-0.000227683
-0.006772367
-0.0002254703
-0.006673793
-0.0002269004
-0.006578367
-0.0002176572
-0.006484528
-0.0002078862
-0.006394371
-0.0001964134
-0.006300198
-0.0002053861
-0.006209041
-0.0001998132
-0.006114007
-0.000208584
-0.006023739
-0.0001937655
-0.005932499
-0.0001921237
-0.005840162
-0.0001957797
-0.005746792
-0.0001979974
-0.005652098
-0.0002010153
-0.005558293
-0.0001938955
-0.005462352
-0.0001926441
-0.005486666
8.842042e-05
-0.005400686
-0.0001564662
-0.005320789
-0.0001572161
-0.005237727
-0.0001618051
-0.005157823
-0.000153036
-0.005074248
-0.0001600114
-0.004992387
-0.000154381
-0.004908854
-0.0001549501
-0.004825108
-0.0001546429
-0.004736904
-0.0001664621
-0.00464776
-0.0001688632
-0.004559465
-0.0001630779
-0.004469537
-0.000162821
-0.004378996
-0.0001611627
-0.004281932
-0.0001776682
-0.004180857
-0.0001888407
-0.004078589
-0.0001887824
-0.003974493
-0.0001903909
-0.003862695
-0.0002072309
-0.003749515
-0.0002084886
-0.003627933
-0.000227005
-0.003499601
-0.0002431964
-0.003363274
-0.0002596783
-0.003217387
-0.0002822693
-0.003044693
-0.0003531144
-0.002856141
-0.0003980607
-0.002657144
-0.0004226794
-0.002414646
-0.0005236146
-0.002115236
-0.0006603887
-0.001719628
-0.0009155515
-0.001025683
-0.001453876
0.0002176052
-0.003111739
0.001360813
-0.002812135
0.001999874
-0.001325144
0.002376016
-0.0008408705
0.002650063
-0.0005720907
0.002866723
-0.0004428843
0.003064583
-0.000406831
0.003239827
-0.0003490079
0.003387469
-0.000278045
0.003519953
-0.0002486913
0.003655543
-0.0002657536
0.003784327
-0.0002521236
0.00390783
-0.0002374088
0.004021253
-0.0002125614
0.004131288
-0.0002055765
0.004235659
-0.0001952431
0.004340345
-0.0001988394
0.004441155
-0.0001900113
0.004537422
-0.0001780615
0.004630712
-0.0001734677
0.004724768
-0.0001786609
0.00481593
-0.0001718688
0.004904157
-0.0001661799
0.004994429
-0.0001733578
0.005079353
-0.0001615243
0.005167297
-0.0001733019
0.005255663
-0.0001778884
0.005342496
-0.0001705027
0.00542474
-0.0001586152
0.005508816
-0.0001643113
0.005591739
-0.0001665361
0.005680091
-0.0001624633
0.005652748
9.565798e-05
0.005750597
-0.0001991256
0.00584909
-0.0002097902
0.005946127
-0.0002096718
0.006042752
-0.0002102394
0.00614021
-0.0002153927
0.006237481
-0.0002131844
0.006331087
-0.0002036452
0.006427398
-0.0002120065
0.00652322
-0.000216696
0.006624323
-0.0002307103
0.006720402
-0.0002164688
0.00681746
-0.0002164074
0.006914418
-0.0002197407
0.007014753
-0.0002302293
0.007114552
-0.0002311833
0.007218625
-0.0002450725
0.007324746
-0.0002517411
0.007431294
-0.0002537951
0.00754203
-0.0002639028
0.007648481
-0.0002533569
0.007764502
-0.0002816891
0.007880072
-0.0002850714
0.008000878
-0.0002982969
0.008124363
-0.0003099528
0.008252062
-0.0003213009
0.008385098
-0.0003409057
0.008526578
-0.0003658498
0.008670094
-0.0003732272
0.008822291
-0.0003992207
0.008987688
-0.0004396722
0.00916883
-0.0004941366
0.009583708
-0.001054919
0.009826485
-0.0006770912
0.01011281
-0.000783773
0.01043067
-0.0008665623
0.01085107
-0.001140799
0.01127389
-0.001078043
0.01224992
-0.002815888
0.001683367
0.001505823
-0.0002626843
-0.004055273
0.002320904
-0.002140225
0.002787073
-0.00130704
0.003125794
-0.0009108115
0.00339768
-0.0007147705
0.003644712
-0.0006538627
0.003863439
-0.0005677347
0.004049752
-0.0004643583
0.004216525
-0.0004154644
0.004385284
-0.0004345127
0.004544706
-0.0004115454
0.004697724
-0.0003904268
0.004838805
-0.0003536426
0.004975218
-0.0003419896
0.005104706
-0.0003247306
0.005233665
-0.0003277991
0.005358347
-0.0003146929
0.005476929
-0.0002966433
0.005592164
-0.000288703
0.005707721
-0.0002942175
0.005819747
-0.0002838951
0.005928076
-0.000274509
0.006038949
-0.0002842304
0.006142874
-0.0002654495
0.006250481
-0.0002809086
0.006358556
-0.0002859634
0.00646434
-0.0002762873
0.006565353
-0.0002596274
0.006668058
-0.000267017
0.006769339
-0.0002678166
0.006878642
-0.0002717661
0.006850254
0.0001240457
0.006967285
-0.0003161564
0.007087281
-0.0003297863
0.007204123
-0.0003265143
0.007320478
-0.0003265945
0.007437979
-0.0003328937
0.007554901
-0.0003301065
0.007667647
-0.0003163905
0.007783374
-0.0003277333
0.007898539
-0.0003318614
0.008019846
-0.0003520169
0.008135178
-0.0003318008
0.008251626
-0.000332856
0.008368206
-0.0003363201
0.008488426
-0.0003504493
0.008607977
-0.0003507349
0.00873277
-0.000369865
0.008859709
-0.0003786805
0.008987274
-0.0003813596
0.009119987
-0.0003966165
0.009246999
-0.0003803685
0.009386276
-0.0004209665
0.009524114
-0.0004229087
0.009668089
-0.0004422718
0.009815749
-0.0004576136
0.00996727
-0.0004728217
0.01012616
-0.0004997963
0.01029418
-0.0005338649
0.01046454
-0.0005435946
0.01064524
-0.0005799206
0.01084184
-0.000636266
0.0112883
-0.0009405962
0.01155268
-0.001319303
0.0118393
-0.00096371
0.01218081
-0.001125285
0.01257143
-0.001257184
0.01307374
-0.001643102
0.01366774
-0.001672051
0.01458358
-0.003731723
0.01424646
0.002020484
-0.01412812
0.01372368
0.002218366
-0.01321059
-0.003704372
-0.01263446
-0.001647816
-0.01215041
-0.00159279
-0.01177962
-0.001197541
-0.01144559
-0.001096829
-0.01116876
-0.0009285158
-0.0109117
-0.001277711
-0.01048132
-0.0008999772
-0.01029532
-0.0005996793
-0.01011834
-0.0005653595
-0.009954892
-0.0005177246
-0.009794018
-0.0005064551
-0.009640161
-0.0004833855
-0.009488468
-0.000472791
-0.009346987
-0.0004353338
-0.009208648
-0.0004198721
-0.009075575
-0.0004026456
-0.008941219
-0.0004044449
-0.008813147
-0.0003832011
-0.008685741
-0.0003783929
-0.008562168
-0.0003624178