/*--------------------------------*- C++ -*----------------------------------*\
| =========                 |                                                 |
| \\      /  F ield         | OpenFOAM: The Open Source CFD Toolbox           |
|  \\    /   O peration     | Version:  2406                                  |
|   \\  /    A nd           | Website:  www.openfoam.com                      |
|    \\/     M anipulation  |                                                 |
\*---------------------------------------------------------------------------*/
FoamFile
{
    version     2.0;
    format      ascii;
    arch        "LSB;label=32;scalar=64";
    class       volScalarField;
    location    "0.1";
    object      p;
}
// * * * * * * * * * * * * * * * * * * * * * * * * * * * * * * * * * * * * * //

dimensions      [0 2 -2 0 0 0 0];

internalField   nonuniform List<scalar> 
4531
(
-0.0005840586
-3.990944e-05
-0.0001449142
-0.0001067721
-7.388193e-05
-9.768733e-05
-5.29066e-05
-6.962184e-05
-6.624313e-05
-4.712028e-05
-6.442534e-05
-4.765225e-05
-5.756577e-05
-2.275719e-05
-3.39826e-05
-2.442327e-05
-2.459236e-05
-2.182272e-05
-4.211756e-06
-2.109171e-05
1.290043e-05
1.921036e-06
8.47761e-05
-0.0001471609
0.000844561
-0.001351713
-0.0002659823
-0.0004325173
-0.0003475898
-0.0003248605
-0.0003036113
-0.0002898168
-0.0002753679
-0.000257674
-0.0002550632
-0.0002447373
-0.000238932
-0.0002322116
-0.0002288669
-0.0002235128
-0.0002200295
-0.0002172642
-0.00021448
-0.0002126701
-0.000210932
-0.0002087304
-0.000208354
-0.0002065777
-0.0002063228
-0.0002059372
-0.0002062395
-0.000206658
-0.0002076185
-0.0002086498
-0.0002105522
-0.0002118388
-0.0002151221
-0.0002171894
-0.0002196938
-0.0002246474
-0.0002272598
-0.0002330047
-0.0002388274
-0.0002473594
-0.0002537227
-0.0002650657
-0.0002727976
-0.0002935573
-0.0003000906
-0.0003329969
-0.0003360858
-0.0004533653
-0.0002385889
-0.001369961
0.0008452963
-0.000148549
9.770317e-05
1.755269e-07
2.011497e-05
-1.608942e-05
-2.53347e-06
-2.508636e-05
-1.476214e-05
-3.777433e-05
-3.919625e-05
-3.487561e-05
-5.517225e-05
-3.61302e-05
-5.702037e-05
-5.109286e-05
-7.541283e-05
-5.881875e-05
-7.67527e-05
-6.278895e-05
-9.528018e-05
-0.0001044291
-0.000169998
-2.697517e-06
-0.0005753938
0.0006967806
0.0001742138
0.0002680112
0.0002156056
0.0002165937
0.0002039467
0.0001922991
0.000199851
0.0001884258
0.0001737604
0.00019785
0.0001906961
0.0001858244
0.0001697228
0.0001893738
0.0001925248
0.000185851
0.0001850333
0.0001863633
0.0001916625
0.0001818439
0.0001968134
0.0001868067
0.000202287
0.0001999421
0.0002052977
0.0002097334
0.0002152447
0.0002164743
0.0002323083
0.0002373034
0.0002531099
0.0002741895
0.0002811067
0.0004026725
0.0004115723
0.0002815481
0.0002768125
0.0002552038
0.0002395293
0.0002345349
0.000219274
0.0002176037
0.0002123729
0.0002078764
0.0002025239
0.0002047846
0.0001889515
0.0001991254
0.0001837453
0.00019273
0.0001880975
0.0001845405
0.000185602
0.0001917039
0.0001886573
0.0001691192
0.0001853206
0.0001900791
0.0001968922
0.0001726227
0.0001869546
0.0001982238
0.0001902443
0.0002051078
0.0002159432
0.0002211866
0.0002975283
0.000131927
0.000730068
0.0004154359
0.0002867252
0.0002779333
0.0002566354
0.0002401834
0.0002350281
0.0002200214
0.0002177822
0.0002125736
0.0002080604
0.000202307
0.0002048744
0.0001891678
0.0001990199
0.0001840095
0.0001922827
0.0001881494
0.0001846224
0.0001853792
0.0001914221
0.0001884627
0.0001691842
0.0001852916
0.0001894546
0.0001961308
0.0001727189
0.0001865172
0.0001975173
0.00019011
0.0002045737
0.0002151607
0.0002204606
0.0002944914
0.0001334042
0.0006983676
0.0006652302
0.0001745289
0.0002660026
0.0002145758
0.000215962
0.0002032727
0.0001920815
0.0001990995
0.0001879715
0.0001738458
0.0001970845
0.0001900744
0.0001857988
0.0001697837
0.000189161
0.0001922122
0.0001855948
0.0001850692
0.000186426
0.0001912355
0.0001821187
0.0001967326
0.0001870326
0.0002023882
0.0001997435
0.000205495
0.0002099496
0.0002154277
0.0002172457
0.0002328209
0.0002379632
0.0002545377
0.0002753713
0.000286015
0.0004070364
0.0007803195
-0.0001192456
9.208953e-05
1.657172e-06
1.960179e-05
-1.579755e-05
-2.621723e-06
-2.495975e-05
-1.504513e-05
-3.74386e-05
-3.9168e-05
-3.455848e-05
-5.49284e-05
-3.610654e-05
-5.67856e-05
-5.092678e-05
-7.482815e-05
-5.836151e-05
-7.625866e-05
-6.283215e-05
-9.473981e-05
-0.000102727
-0.0001677157
-3.550683e-06
-0.0005455759
-0.001289814
-0.0003021996
-0.0004298279
-0.0003504555
-0.0003258299
-0.00030427
-0.0002902171
-0.0002758917
-0.0002580973
-0.0002551667
-0.000244914
-0.0002390718
-0.0002322994
-0.0002288994
-0.0002235741
-0.0002200622
-0.0002172851
-0.0002144832
-0.0002126504
-0.0002109193
-0.0002087256
-0.0002083291
-0.0002065676
-0.0002063148
-0.000205931
-0.0002062338
-0.0002066505
-0.0002076106
-0.000208647
-0.0002105472
-0.0002118538
-0.0002151141
-0.0002171947
-0.0002197306
-0.000224668
-0.0002273484
-0.0002331479
-0.0002390117
-0.0002475226
-0.0002539579
-0.0002653269
-0.0002732895
-0.0002939181
-0.0003009414
-0.0003336198
-0.0003395699
-0.0004496444
-0.0002754851
-0.00130949
-0.0005530477
-4.007366e-05
-0.0001430423
-0.0001058098
-7.345436e-05
-9.674218e-05
-5.280462e-05
-6.912725e-05
-6.562723e-05
-4.716506e-05
-6.421611e-05
-4.734359e-05
-5.726133e-05
-2.275322e-05
-3.41543e-05
-2.42072e-05
-2.449071e-05
-2.17845e-05
-4.766891e-06
-2.079908e-05
1.280584e-05
3.091346e-06
7.950293e-05
-0.0001172844
0.0007802294
-0.0005152571
-3.925805e-05
-0.0001399142
-0.0001046101
-7.262709e-05
-9.556078e-05
-5.252169e-05
-6.844967e-05
-6.485248e-05
-4.716327e-05
-6.396398e-05
-4.691103e-05
-5.694904e-05
-2.269064e-05
-3.439789e-05
-2.393161e-05
-2.438505e-05
-2.18086e-05
-5.447217e-06
-2.057528e-05
1.262118e-05
4.196827e-06
7.417097e-05
-8.687659e-05
0.0007055642
-0.001214878
-0.0003399241
-0.0004277103
-0.0003536771
-0.0003269549
-0.0003050057
-0.0002906517
-0.0002764908
-0.000258571
-0.0002552862
-0.0002451063
-0.0002392271
-0.0002323905
-0.0002289283
-0.0002236365
-0.0002200927
-0.000217305
-0.0002144789
-0.0002126192
-0.0002108977
-0.0002087123
-0.0002082952
-0.0002065492
-0.0002063009
-0.0002059198
-0.0002062235
-0.0002066376
-0.0002075969
-0.0002086391
-0.0002105362
-0.0002118642
-0.0002150982
-0.000217193
-0.000219763
-0.0002246872
-0.000227445
-0.0002333115
-0.0002392207
-0.0002477055
-0.0002542175
-0.0002656198
-0.0002738345
-0.0002943308
-0.000301884
-0.0003343759
-0.0003434484
-0.0004464309
-0.0003139939
-0.00123615
0.0007050039
-8.956987e-05
8.634122e-05
3.102455e-06
1.89133e-05
-1.558995e-05
-2.741891e-06
-2.488735e-05
-1.536841e-05
-3.709423e-05
-3.914995e-05
-3.415498e-05
-5.462393e-05
-3.600901e-05
-5.65124e-05
-5.064224e-05
-7.410423e-05
-5.772127e-05
-7.556346e-05
-6.275003e-05
-9.376918e-05
-0.0001008121
-0.0001641746
-3.53846e-06
-0.0005089853
0.0006265308
0.0001738053
0.0002630194
0.0002129632
0.0002151643
0.0002022701
0.0001916914
0.0001981339
0.0001873329
0.0001738419
0.0001961048
0.0001892737
0.0001857417
0.0001697751
0.000188882
0.0001918305
0.0001852564
0.0001850916
0.0001864901
0.0001907151
0.0001824148
0.0001966464
0.0001872798
0.0002025061
0.0001994882
0.0002057357
0.0002102082
0.0002156891
0.0002181782
0.0002334648
0.0002388022
0.0002562866
0.0002768335
0.0002921141
0.0004091932
0.000417002
0.0002931004
0.0002793336
0.0002583855
0.0002410148
0.0002356476
0.0002209239
0.0002180353
0.0002128126
0.0002082829
0.0002020271
0.0002049759
0.0001894007
0.0001989018
0.0001842892
0.0001917323
0.0001882017
0.000184701
0.000185086
0.0001910809
0.000188208
0.0001691817
0.000185231
0.000188651
0.0001951568
0.0001727299
0.000185902
0.0001966103
0.0001898273
0.0002037203
0.000214257
0.0002190455
0.0002903943
0.0001339569
0.0006595398
0.0004146111
0.0003001642
0.0002808444
0.0002603017
0.0002419908
0.0002363404
0.0002219388
0.0002183738
0.0002130888
0.0002085255
0.0002017263
0.0002050403
0.0001896704
0.0001987765
0.0001845526
0.0001911208
0.0001882723
0.0001847527
0.0001847326
0.0001907456
0.0001879174
0.0001690663
0.0001851052
0.0001878108
0.0001941018
0.0001726038
0.0001851307
0.0001955797
0.0001894335
0.000202596
0.0002132491
0.0002173247
0.0002846932
0.0001355175
0.0006153746
0.0005827861
0.0001741676
0.0002584507
0.0002110709
0.0002141558
0.0002010581
0.0001911755
0.0001970436
0.000186533
0.0001736985
0.0001950425
0.0001884352
0.0001856178
0.0001696517
0.0001885646
0.0001914497
0.0001848542
0.0001850838
0.0001865702
0.0001901372
0.0001826987
0.000196555
0.0001875674
0.0002025903
0.0001992151
0.0002059985
0.0002105073
0.0002160387
0.0002192268
0.0002341848
0.0002397891
0.0002582015
0.000278411
0.0002989123
0.0004074682
0.000622525
-6.100827e-05
7.981041e-05
4.817685e-06
1.796323e-05
-1.546356e-05
-2.91483e-06
-2.480815e-05
-1.573503e-05
-3.678278e-05
-3.913516e-05
-3.365705e-05
-5.434416e-05
-3.586186e-05
-5.612555e-05
-5.035289e-05
-7.329696e-05
-5.693418e-05
-7.474076e-05
-6.252196e-05
-9.229794e-05
-9.92449e-05
-0.000158592
-4.584825e-06
-0.0004672804
-0.001128563
-0.0003770565
-0.0004252966
-0.0003573008
-0.0003281425
-0.0003057861
-0.0002911302
-0.0002771329
-0.0002590555
-0.000255412
-0.0002453176
-0.0002393845
-0.0002324831
-0.0002289549
-0.0002236978
-0.0002201163
-0.0002173223
-0.000214467
-0.0002125804
-0.000210868
-0.0002086911
-0.0002082536
-0.0002065227
-0.0002062785
-0.0002059024
-0.0002062065
-0.0002066181
-0.0002075759
-0.0002086255
-0.0002105184
-0.0002118682
-0.0002150775
-0.0002171843
-0.0002197878
-0.0002247047
-0.0002275447
-0.000233481
-0.0002394454
-0.0002478994
-0.0002544972
-0.0002659212
-0.0002744179
-0.0002947645
-0.0003028948
-0.0003351494
-0.0003477612
-0.0004428437
-0.0003519784
-0.001151421
-0.0004724174
-3.953292e-05
-0.0001350987
-0.0001034876
-7.150741e-05
-9.41951e-05
-5.20676e-05
-6.768897e-05
-6.395989e-05
-4.706359e-05
-6.368837e-05
-4.653213e-05
-5.661981e-05
-2.258325e-05
-3.45957e-05
-2.361829e-05
-2.431942e-05
-2.189349e-05
-6.271127e-06
-2.040875e-05
1.223724e-05
5.582313e-06
6.815932e-05
-5.737e-05
0.0006234592
-0.0004234536
-4.115922e-05
-0.000128259
-0.0001026007
-7.05286e-05
-9.229006e-05
-5.147614e-05
-6.711012e-05
-6.258505e-05
-4.665755e-05
-6.347863e-05
-4.660109e-05
-5.603285e-05
-2.267089e-05
-3.441421e-05
-2.313048e-05
-2.43456e-05
-2.221024e-05
-7.617193e-06
-2.008616e-05
1.140152e-05
7.682083e-06
6.146873e-05
-2.92943e-05
0.0005320001
-0.001028286
-0.0004125877
-0.0004228106
-0.0003614852
-0.0003294653
-0.0003066518
-0.0002917552
-0.0002778034
-0.0002595865
-0.0002555159
-0.0002455562
-0.0002395522
-0.0002325858
-0.0002289864
-0.0002237649
-0.0002201331
-0.0002173375
-0.0002144485
-0.0002125345
-0.0002108301
-0.0002086668
-0.000208201
-0.0002064854
-0.0002062448
-0.0002058764
-0.0002061819
-0.0002065885
-0.0002075441
-0.0002086003
-0.0002104977
-0.0002118698
-0.0002150546
-0.0002171698
-0.0002198006
-0.0002247126
-0.0002276697
-0.0002336716
-0.0002397038
-0.0002481159
-0.0002548185
-0.0002662435
-0.0002750563
-0.0002951838
-0.0003040457
-0.0003359223
-0.0003526475
-0.0004388184
-0.0003884147
-0.001052984
0.0005318433
-3.474821e-05
7.217679e-05
7.271471e-06
1.637265e-05
-1.54079e-05
-3.090834e-06
-2.431412e-05
-1.655312e-05
-3.642738e-05
-3.895179e-05
-3.271684e-05
-5.438525e-05
-3.571451e-05
-5.516904e-05
-5.052473e-05
-7.230103e-05
-5.566507e-05
-7.418002e-05
-6.228953e-05
-9.035808e-05
-9.810969e-05
-0.0001505994
-7.286248e-06
-0.0004195746
0.0005333916
0.0001764153
0.0002518397
0.0002088665
0.0002128356
0.0001997227
0.000190795
0.000195628
0.0001854736
0.0001733856
0.0001940257
0.0001876079
0.0001854281
0.0001693846
0.0001882073
0.0001910718
0.0001843231
0.0001850482
0.000186659
0.0001894432
0.0001830185
0.0001965462
0.0001881079
0.0002024611
0.0001988445
0.0002062783
0.0002109023
0.0002166115
0.0002205582
0.0002348416
0.0002409125
0.0002601973
0.0002803775
0.0003061222
0.0004010539
0.0004074372
0.0003076233
0.0002827369
0.000262299
0.0002430998
0.0002369663
0.0002232316
0.0002189326
0.0002134566
0.0002087829
0.0002013247
0.000204888
0.0001901896
0.0001987326
0.0001848509
0.0001904001
0.0001883568
0.0001847729
0.0001842468
0.0001904165
0.0001875871
0.000168809
0.0001849153
0.0001869837
0.0001930949
0.0001723123
0.0001841073
0.0001942153
0.0001891934
0.0002013225
0.0002118591
0.0002154715
0.0002767915
0.0001388046
0.0005647852
0.0003951509
0.0003144965
0.0002854416
0.0002642766
0.0002443254
0.0002372633
0.0002248419
0.0002198785
0.000214021
0.0002090676
0.0002007244
0.0002043376
0.0001911762
0.0001989966
0.0001853586
0.0001895086
0.0001883134
0.0001847266
0.0001835452
0.0001902489
0.000187259
0.0001682235
0.0001846922
0.0001863744
0.0001923222
0.0001716977
0.0001827109
0.0001923581
0.0001893931
0.0001999855
0.0002098938
0.0002137165
0.0002667102
0.0001437579
0.0005077691
0.0004770875
0.0001806143
0.0002429935
0.000206184
0.0002111875
0.0001983702
0.0001908222
0.0001937467
0.0001840328
0.0001727437
0.0001932396
0.0001869951
0.0001852028
0.0001687889
0.0001878566
0.0001908528
0.0001835909
0.0001849551
0.0001866126
0.0001885598
0.0001835461
0.0001968401
0.0001891149
0.0002019348
0.0001982764
0.0002065873
0.0002114993
0.0002175753
0.0002222089
0.0002351746
0.0002421568
0.0002621743
0.0002831649
0.0003127821
0.0003896189
0.0004323838
-1.348689e-05
6.350456e-05
1.091842e-05
1.384121e-05
-1.540758e-05
-3.242016e-06
-2.257705e-05
-1.841736e-05
-3.581622e-05
-3.84131e-05
-3.090427e-05
-5.492803e-05
-3.55862e-05
-5.296402e-05
-5.182107e-05
-7.103381e-05
-5.358928e-05
-7.433591e-05
-6.225436e-05
-8.80224e-05
-9.769278e-05
-0.0001400216
-1.159498e-05
-0.0003657913
-0.0009100062
-0.0004432813
-0.0004209006
-0.0003662698
-0.0003310308
-0.0003076584
-0.0002926514
-0.0002784712
-0.0002602538
-0.0002555586
-0.0002458198
-0.000239744
-0.0002327066
-0.0002290323
-0.0002238446
-0.0002201396
-0.0002173532
-0.0002144225
-0.0002124787
-0.0002107852
-0.0002086429
-0.0002081303
-0.0002064287
-0.0002061936
-0.0002058367
-0.0002061491
-0.0002065414
-0.0002074922
-0.0002085515
-0.0002104777
-0.0002118742
-0.0002150352
-0.0002171473
-0.0002197939
-0.0002247023
-0.000227859
-0.0002339139
-0.0002400298
-0.0002483767
-0.0002552044
-0.0002666088
-0.0002757628
-0.0002955668
-0.0003054686
-0.0003366864
-0.0003582174
-0.0004347393
-0.0004195669
-0.0009369711
-0.0003675846
-4.356052e-05
-0.0001190375
-0.0001020759
-7.011357e-05
-8.947012e-05
-5.078951e-05
-6.680183e-05
-6.032653e-05
-4.57168e-05
-6.347359e-05
-4.748067e-05
-5.487775e-05
-2.319072e-05
-3.347004e-05
-2.224311e-05
-2.453091e-05
-2.298913e-05
-9.796904e-06
-1.929041e-05
9.958885e-06
1.067623e-05
5.424588e-05
-4.82406e-06
0.0004302151
-0.0003016525
-4.919623e-05
-0.0001061701
-0.0001003884
-6.655062e-05
-8.795841e-05
-4.929085e-05
-6.40062e-05
-5.963949e-05
-4.533589e-05
-6.317655e-05
-4.662513e-05
-5.469484e-05
-2.206797e-05
-3.380598e-05
-2.162538e-05
-2.472339e-05
-2.325924e-05
-1.017879e-05
-1.97823e-05
1.013636e-05
1.058416e-05
4.391432e-05
1.180942e-05
0.0003133306
-0.0007600241
-0.0004639466
-0.000417435
-0.0003697441
-0.0003328337
-0.0003085489
-0.0002932902
-0.0002794288
-0.0002609343
-0.0002557076
-0.000246122
-0.0002399299
-0.0002327912
-0.0002290545
-0.0002238894
-0.0002201022
-0.000217363
-0.0002143545
-0.0002123786
-0.0002107199
-0.0002085545
-0.0002080354
-0.0002063268
-0.0002060999
-0.0002057668
-0.0002060884
-0.0002064687
-0.0002074012
-0.0002084845
-0.0002104053
-0.000211835
-0.0002150064
-0.000217075
-0.0002197734
-0.0002247352
-0.0002279963
-0.0002341503
-0.0002403999
-0.0002486797
-0.0002555768
-0.0002669708
-0.0002765794
-0.0002963171
-0.0003068789
-0.0003378725
-0.0003631946
-0.0004305323
-0.000438521
-0.0007880249
0.0003123989
3.02332e-06
5.413004e-05
1.223134e-05
1.325694e-05
-1.592193e-05
-3.940396e-06
-2.133079e-05
-1.879431e-05
-3.527505e-05
-3.874289e-05
-3.042358e-05
-5.349069e-05
-3.490099e-05
-5.181276e-05
-5.147298e-05
-7.028254e-05
-5.300161e-05
-7.20992e-05
-6.095486e-05
-8.485186e-05
-9.784117e-05
-0.0001287376
-1.588954e-05
-0.0003041649
0.0004063001
0.0001850676
0.0002316607
0.0002029456
0.0002088981
0.0001963962
0.000188892
0.0001929998
0.000182469
0.0001709721
0.0001919294
0.0001870241
0.0001846865
0.0001671063
0.0001876534
0.0001914608
0.0001829844
0.0001845361
0.0001861123
0.0001877966
0.0001841336
0.0001972697
0.0001890907
0.0002022641
0.0001980842
0.0002070204
0.0002122332
0.0002182856
0.0002227011
0.000236206
0.0002438364
0.0002645841
0.0002862433
0.0003161484
0.0003763245
0.0003809181
0.0003179989
0.0002884145
0.0002666735
0.0002459756
0.0002382451
0.0002253132
0.000220564
0.0002147185
0.0002094756
0.0002005034
0.0002046433
0.0001911363
0.000199412
0.0001859064
0.0001886786
0.000187812
0.0001843994
0.0001829872
0.0001909327
0.0001870816
0.0001665559
0.0001841873
0.000186413
0.0001910225
0.0001699527
0.0001811809
0.0001916175
0.0001876892
0.0001978456
0.0002071429
0.0002123327
0.0002556718
0.0001483765
0.0004448803
0.0003757837
0.0003127438
0.0002872574
0.0002714948
0.0002487578
0.0002464937
0.0002198286
0.0002178096
0.0002145515
0.0002100955
0.0002032529
0.0002113537
0.0001832378
0.0001976332
0.0001837062
0.0001894686
0.0001870872
0.0001833248
0.0001843495
0.000193173
0.0001870438
0.0001627585
0.0001819599
0.0001867333
0.0001851849
0.0001653149
0.0001808603
0.0001982848
0.0001733905
0.000191861
0.000202945
0.0002097688
0.000244355
0.0001453925
0.0003746232
0.0003075685
0.0001837195
0.0002165377
0.000199143
0.0002040424
0.0001908867
0.0001743995
0.0001994929
0.00018219
0.0001663389
0.0001861048
0.0001873269
0.000182417
0.0001632589
0.000187518
0.0001935311
0.0001840616
0.0001831191
0.0001854273
0.0001890689
0.0001820789
0.0001955377
0.0001812641
0.0002090207
0.0002008752
0.0002076709
0.0002121043
0.0002155718
0.0002171935
0.0002445539
0.0002466739
0.0002694681
0.0002852381
0.0003109344
0.0003722048
0.0001422145
2.470801e-05
4.492213e-05
-6.904518e-06
2.679163e-05
-1.982531e-05
-6.873629e-06
-3.528883e-05
-3.513271e-06
-3.857235e-05
-4.529325e-05
-4.21477e-05
-4.09108e-05
-3.133194e-05
-6.553989e-05
-3.379816e-05
-7.338461e-05
-6.354368e-05
-5.302857e-05
-5.104683e-05
-7.840536e-05
-9.445969e-05
-0.0001221893
-1.418331e-05
-0.0002266613
-0.0005734685
-0.0004676749
-0.0004012138
-0.0003628052
-0.0003339732
-0.0003075604
-0.0002906719
-0.0002820835
-0.000260057
-0.0002567774
-0.0002465246
-0.0002398645
-0.0002325444
-0.0002288277
-0.000223658
-0.0002199026
-0.0002172918
-0.0002141093
-0.0002121282
-0.0002105507
-0.0002081268
-0.0002079426
-0.0002061422
-0.0002059036
-0.0002056339
-0.0002059069
-0.0002063835
-0.0002072634
-0.0002085011
-0.0002100456
-0.0002115217
-0.0002148614
-0.0002167954
-0.0002197609
-0.0002250755
-0.0002272801
-0.0002338955
-0.0002404184
-0.000248802
-0.0002554204
-0.0002669054
-0.0002774024
-0.0002988391
-0.0003053378
-0.0003412211
-0.000359091
-0.0004242955
-0.0004378996
-0.0005942546
-0.0002191885
-7.165027e-05
-8.669258e-05
-9.116958e-05
-4.363514e-05
-9.808812e-05
-4.342572e-05
-4.919793e-05
-7.165079e-05
-5.035774e-05
-6.0047e-05
-3.316718e-05
-6.368134e-05
-1.006889e-05
-4.552935e-05
-2.530231e-05
-2.406254e-05
-1.840956e-05
1.791433e-06
-3.156618e-05
2.10866e-05
-8.90185e-06
2.207898e-05
1.280988e-05
0.0001760732
-2.090224e-05
1.308604e-05
-1.063391e-05
-5.329023e-05
-0.0001412579
-3.65478e-05
-0.0002287831
-0.0002192733
-1.619779e-05
-0.0002019727
-2.194178e-05
-2.703681e-05
-1.048205e-05
-2.990146e-05
-2.305394e-05
-0.0001988301
-0.0002431606
9.669319e-05
7.588419e-05
3.743844e-05
-0.000200457
-0.0002020939
-0.0001873086
0.0001259799
0.000169123
-1.27635e-05
1.493275e-05
0.0001592407
0.000108055
-2.418095e-05
0.000145751
-1.60342e-05
0.0001789916
0.0001817483
-5.824263e-05
-1.205924e-05
0.0001956347
-1.494569e-05
0.00020093
9.685438e-05
-2.340409e-05
0.0001758665
2.45278e-06
-7.375509e-05
-2.041702e-05
-7.885442e-05
-0.0002217956
0.0001567661
-0.0001263249
-2.524854e-05
6.336225e-05
-9.87921e-05
-5.419075e-05
-3.369816e-05
8.562122e-05
-2.670215e-05
-1.96411e-05
0.0001083396
0.0001539934
-5.578634e-05
-3.588217e-05
-4.545519e-05
-6.87157e-06
9.644941e-05
-3.159518e-05
-5.549009e-05
-0.00018728
-2.262839e-05
-2.471031e-05
-0.0001867372
-0.0001622324
0.0001332749
-8.201504e-05
-4.295174e-06
-0.0002449622
-3.593406e-05
-0.0002039162
-4.708604e-05
-0.0002584323
-0.000114048
9.711207e-05
-2.86068e-05
-1.675792e-05
-7.327797e-06
-5.279004e-05
-0.0002032769
-1.688573e-05
-1.467434e-05
-3.268593e-07
-1.396487e-05
-1.291474e-05
-4.554504e-05
-1.388503e-05
-1.104226e-05
-1.637463e-05
-0.0001653516
-0.0001096042
-4.546035e-05
-1.424554e-05
-4.883624e-05
-2.42159e-05
0.0001557622
-4.714423e-06
-2.236122e-05
-8.627021e-05
-6.060382e-05
-1.842447e-05
0.0001276509
-1.31162e-05
-6.507855e-05
-2.593547e-05
-0.000123496
-7.413121e-05
-4.680859e-05
-4.464982e-05
0.0001239482
-0.0002237441
-1.837304e-05
-4.891786e-05
0.0001948806
0.0002237758
-6.564183e-06
-8.787053e-05
-1.776404e-05
-1.567843e-05
-3.498409e-05
0.0001421805
-2.830977e-05
-1.234555e-05
-3.571554e-05
-1.280511e-05
0.0001847801
-1.177972e-05
-3.366451e-05
-6.408422e-05
0.0001089066
-3.268817e-05
-1.056043e-05
-3.87131e-05
0.0001479377
-8.249518e-05
0.0002401343
-2.256216e-05
-2.745759e-05
-1.300231e-05
-5.5736e-05
-0.0001566091
0.000117158
-3.262179e-05
-1.9297e-05
-2.682108e-05
-9.538996e-07
-1.081983e-05
2.311183e-05
0.0001759914
-5.950039e-05
0.0002496591
-3.490273e-05
-5.830778e-05
-2.265597e-05
0.0001944385
1.442647e-05
-7.283019e-05
1.286565e-05
-1.544537e-05
-4.459657e-05
8.207408e-05
-0.0001789888
-3.156469e-05
-4.235321e-05
-1.702888e-05
-0.0001150712
0.0001432114
-2.956501e-05
7.156168e-05
7.587571e-05
-3.492651e-05
-0.0001270472
-5.05488e-05
-0.0001037862
-3.610652e-05
-0.0001066622
0.0001644582
-1.335292e-05
-0.0002117057
-0.000227479
-2.214633e-05
-7.321645e-05
0.0001529906
-1.535308e-05
0.0001496249
-1.560939e-05
2.85806e-05
0.0001341151
-0.0001314085
-2.087715e-05
-1.422485e-05
0.0001714252
0.0002045305
-2.586395e-05
-2.174443e-05
-1.012111e-05
0.0001457444
-1.531116e-05
-1.694081e-05
-0.0002068196
-2.683037e-05
-8.010005e-05
-5.549052e-05
-2.875384e-05
0.0001065394
-1.424866e-05
-0.0001346533
3.731372e-05
3.441107e-05
-0.000154874
-0.000164045
5.249377e-05
0.0001763066
-1.049823e-05
-5.820288e-05
-0.0002036865
-1.903567e-05
-3.052818e-05
-6.066948e-05
-0.0002080925
0.0001575457
4.415446e-05
-0.0001504353
0.0001730719
-0.0002097687
-9.89838e-05
-0.0002409399
-0.0002682293
-4.49544e-05
-0.0002104787
-2.195603e-05
-0.0002260426
9.509645e-05
0.000161308
0.0001080863
-7.477058e-05
-2.523554e-05
-2.88106e-05
1.260719e-05
-5.897328e-05
-2.850389e-05
-4.483931e-05
7.624898e-06
-7.391746e-06
-0.0001795057
1.065311e-05
-2.56464e-05
0.0001123277
-3.807548e-05
0.0002645621
-4.496711e-05
-1.352793e-05
-4.192646e-05
0.0001136529
-3.32304e-05
-1.471554e-05
0.0001689162
-0.0002516883
-4.253841e-05
-2.43242e-05
-4.538384e-05
0.0001290624
0.0001550249
8.61235e-05
0.0001451897
-9.320578e-05
1.308816e-05
-0.0001979771
-4.596755e-05
-4.154351e-05
0.0002209627
-0.0002120513
-1.749412e-05
-0.0001934621
-0.0001219322
-3.679467e-05
-0.0002391245
-2.903156e-05
-1.841736e-05
-1.987652e-05
0.0001612797
-1.764279e-05
-9.233893e-05
6.587155e-06
0.0002285443
0.0001086229
-0.0001722713
-2.976654e-05
-0.0001576921
-1.34865e-05
-3.592014e-05
-4.187155e-05
-9.505334e-05
-0.0001956592
0.0002101276
-2.466069e-05
-3.13285e-05
5.959291e-05
-1.904804e-05
-0.0001381562
-8.270921e-05
-0.0001252232
-4.152998e-05
-2.618629e-05
-2.238334e-05
0.0001613797
0.0001913664
0.0001794654
-0.0001794827
-1.191244e-05
-2.15706e-05
9.320087e-06
-8.92704e-05
-5.495431e-05
-0.0001956609
1.202949e-05
0.0001385451
-4.868935e-05
2.899409e-06
-3.666043e-05
-0.0001398972
4.236725e-05
-0.000258191
0.0001522935
-1.665436e-05
-0.0001936498
-1.513601e-05
-1.291749e-05
-1.201337e-05
-1.338781e-05
-1.643642e-05
-7.149488e-05
-4.414005e-05
-2.92738e-05
0.0001717681
-4.533964e-05
0.0001243645
9.354363e-05
-4.89976e-06
-1.999937e-05
0.0001683212
0.0001391838
0.0001437128
0.0001300789
0.0001786798
-2.248783e-05
-3.745179e-05
-4.25182e-05
-0.0001020307
-0.0001175258
0.0002007825
0.000185771
0.000185764
0.0002039514
-7.226009e-05
-0.0002251972
-0.0001831396
-2.491049e-05
-6.544661e-05
8.352476e-05
-2.830299e-05
-3.074493e-05
-3.588664e-05
-1.802974e-05
-1.582588e-05
3.777724e-05
-4.338562e-05
-5.415172e-05
-4.269539e-05
-2.913962e-05
-4.162485e-05
0.0002303317
-6.031752e-05
-1.558476e-05
-3.551297e-05
-3.526349e-05
-1.240358e-05
-3.080031e-06
0.000158874
-3.372515e-05
-3.483442e-05
0.0001877843
0.0001695362
-0.0002058582
0.000161244
2.589059e-05
-1.939042e-05
-2.740513e-05
0.0001676224
-2.319229e-05
-1.216739e-05
-0.0001387687
-1.401205e-05
-1.596112e-05
-1.339474e-05
3.349259e-05
1.101846e-05
0.0001718863
0.000221853
-2.988054e-05
7.832813e-05
-1.185745e-05
-0.0002089112
-0.000200239
-0.0001799025
0.000166265
-1.386747e-05
-0.0002070248
-1.206443e-05
0.0001264381
-2.727346e-05
-5.251421e-05
-2.995509e-05
-2.458987e-05
-2.434174e-05
-1.595268e-05
0.0001738938
9.929228e-05
-7.049485e-05
-3.597483e-05
-3.470654e-05
-2.050297e-05
-2.674919e-05
5.232945e-05
-2.550736e-05
-7.360163e-05
-9.49785e-05
-6.714968e-05
7.414333e-05
-0.0002010354
-3.336158e-05
-4.440246e-05
-2.041663e-05
-2.443248e-05
-2.795255e-05
-5.060307e-05
-8.039591e-05
0.0001719165
-1.353342e-05
-9.182422e-07
-3.710986e-05
-4.375952e-05
-3.365717e-05
-1.544492e-05
-7.592727e-05
0.0001900405
1.985356e-05
-3.639466e-05
-4.071321e-05
-3.482193e-05
-2.272881e-05
-1.763795e-05
-2.376507e-05
-2.715451e-05
-1.450383e-05
-7.568185e-05
-1.583711e-05
9.627522e-05
-4.836708e-05
-8.464974e-05
-2.462942e-05
-5.31609e-05
-5.006115e-05
-1.214143e-05
0.0001841224
-2.306727e-05
-1.85222e-05
-0.0001844887
0.0001947697
-0.0001999986
-0.0001991894
-1.337248e-05
-2.181786e-05
0.0001139424
-1.36815e-05
-1.449965e-05
0.0001293982
-4.057874e-05
0.0001874192
0.0001961608
-0.0001965457
0.0001389899
0.000180064
0.0001571975
-0.0001854062
0.0001610582
-1.842324e-05
0.0001318104
-2.571321e-05
-8.758026e-05
-1.708672e-05
-3.723035e-05
0.0001523744
7.568551e-06
-2.199086e-05
-0.0001140057
8.365089e-05
-0.0001484342
-3.123668e-05
0.0001530867
0.0001754583
-6.890197e-05
9.285802e-05
0.0001183923
-9.255723e-05
5.823659e-06
-2.425281e-05
-1.571514e-05
-1.434065e-05
-7.670339e-05
-3.87508e-05
4.476305e-05
0.0002262529
-2.571776e-05
-4.888793e-05
0.0002237265
0.0001539717
-2.68507e-05
0.0001065082
-0.0001352877
-3.775903e-05
-5.752317e-05
-0.0001417814
-1.65593e-06
0.000182945
0.0001925681
0.0001847172
-9.423005e-05
-3.529778e-05
-4.496907e-05
-2.566481e-05
-2.569726e-05
-2.016291e-05
-1.684885e-05
-1.741392e-05
-1.795668e-05
-1.51207e-05
-1.388929e-05
-5.978315e-05
-0.0002089479
-0.0003031445
-0.0001055701
7.328453e-05
-2.4362e-05
-2.766006e-05
-2.738812e-05
0.0002384174
-1.114916e-05
-2.260964e-05
-1.273502e-05
-1.13957e-05
-1.068242e-05
1.818907e-05
-0.0002624028
-8.9235e-05
1.290738e-07
-5.701532e-05
-5.885509e-05
3.507043e-05
9.639789e-05
-5.922323e-05
-6.477457e-05
-0.0001089832
0.0001651738
-3.837093e-05
-2.067711e-05
-1.482416e-05
-3.530692e-05
-0.0002203951
-2.942299e-05
0.0001522122
0.0001599478
-1.159245e-05
-6.126945e-05
-6.09038e-05
2.514542e-05
3.975622e-06
-3.015944e-05
0.0001661833
-1.668482e-05
9.57767e-05
-8.246845e-06
0.0001173828
0.0001499891
2.498846e-05
8.052568e-06
5.659283e-06
-0.0001431093
9.464416e-05
0.000140756
-3.10332e-05
0.0001237683
-1.019683e-05
-1.885914e-05
-0.0002005308
4.734608e-05
-0.0001372308
-3.656914e-05
-2.087259e-05
-0.0002263537
8.397073e-05
0.0002178
-0.0002518561
-1.393454e-05
-2.339386e-05
-6.826774e-05
3.745247e-05
-3.299557e-05
-2.010561e-05
-1.929809e-05
-3.201529e-05
-0.0001974419
-0.0001065311
-0.0001549968
-0.0002033725
-0.0001948366
-2.341194e-05
5.980601e-05
5.309122e-05
2.272323e-06
0.000110805
0.0002390474
0.0001405168
-1.735552e-05
-2.007061e-05
-1.177226e-05
-1.24931e-05
-1.537117e-05
-1.092278e-05
-1.581289e-05
0.0001440839
-2.429948e-05
0.0002317577
-1.087395e-05
-2.795882e-05
-4.144419e-05
0.0001083466
-3.277689e-05
-3.550596e-05
-0.0002312043
-0.0001534434
-0.0002377723
-0.0001669582
0.0001041816
-0.000319118
-3.188046e-05
-2.926838e-05
-6.666162e-05
-4.188372e-05
-0.0001537909
-0.0001905081
-0.0001296695
0.0001276711
-0.000208514
-3.878314e-05
-4.261651e-05
4.699961e-06
-3.412407e-05
0.000140857
-4.82246e-05
-3.889601e-05
-0.000219057
-2.325793e-05
-3.096556e-05
-0.0001295269
-4.296723e-05
-1.773803e-05
-0.0001369657
-2.172078e-05
9.618447e-05
-2.635919e-05
-2.895117e-05
-2.263375e-05
0.000190077
-0.0001582043
-1.170405e-05
-1.093347e-05
4.730446e-05
-0.0001334725
-0.0001473106
-1.003074e-05
-4.348039e-05
9.834069e-05
-2.002249e-05
-0.0001854878
-2.50833e-05
-2.529611e-05
-6.953212e-05
-0.0002354025
-0.0002382794
0.0001564915
-4.478835e-05
-3.266327e-05
0.0001671713
-0.0001226719
0.0001262177
-4.257075e-05
-7.123326e-05
0.0001523527
-0.0002044789
-2.12348e-05
7.350603e-06
-2.124076e-05
-0.0002117673
-1.214034e-05
-1.086453e-05
0.000169115
0.0001316934
0.0001486632
0.0001502371
0.0001685165
0.00019414
-1.108908e-05
1.898357e-05
-3.202884e-06
-3.397787e-05
-3.0063e-05
-3.523992e-05
-3.188284e-05
-0.0002001963
-1.326398e-05
-1.224862e-05
-2.549142e-05
-3.349615e-05
0.0002178778
0.0002042968
0.0001515465
0.0001640288
-3.264585e-05
-5.756142e-05
-2.509211e-05
-2.413105e-05
9.666011e-05
-2.331082e-05
-4.89851e-06
-9.162784e-07
-4.747535e-05
0.0001509587
0.0001885781
-1.60829e-05
-1.323182e-05
5.368388e-05
-5.871369e-05
-0.000168093
-2.441624e-05
9.555187e-05
-1.032027e-05
-3.681926e-05
-1.849385e-05
-8.198476e-05
-1.423723e-05
8.204189e-05
-0.000172205
0.0002210937
-3.027128e-05
9.533851e-05
4.437788e-05
5.032155e-05
-0.0002026112
-4.211164e-05
-0.0002331228
5.529821e-06
-3.186218e-05
-0.0001137034
-5.55818e-05
-1.597832e-05
-1.093492e-05
-2.609817e-05
-1.829481e-05
-2.294192e-05
5.895068e-05
0.0001118344
-6.234465e-05
-9.669959e-05
-2.603813e-05
5.049321e-05
-8.476846e-05
-0.0002096081
-4.201036e-05
-1.549095e-05
-0.000180665
4.981865e-05
-1.202802e-05
3.969219e-06
-2.497958e-05
-4.444761e-05
0.0002258768
0.0001990478
0.0002212945
0.0001853098
-0.0002081134
-1.456017e-05
2.508199e-05
-4.489008e-05
-0.0001521522
-1.549749e-05
-4.269593e-05
0.0001350734
-1.924785e-05
-1.812048e-05