/*--------------------------------*- C++ -*----------------------------------*\
| =========                 |                                                 |
| \\      /  F ield         | OpenFOAM: The Open Source CFD Toolbox           |
|  \\    /   O peration     | Version:  2406                                  |
|   \\  /    A nd           | Website:  www.openfoam.com                      |
|    \\/     M anipulation  |                                                 |
\*---------------------------------------------------------------------------*/
FoamFile
{
    version     2.0;
    format      ascii;
    arch        "LSB;label=32;scalar=64";
    class       surfaceScalarField;
    location    "0.1";
    object      phi;
}
// * * * * * * * * * * * * * * * * * * * * * * * * * * * * * * * * * * * * * //

dimensions      [0 3 -1 0 0 0 0];

oriented        oriented;

internalField   nonuniform List<scalar> 
7340
(
3.180887e-14
-5.141495e-14
1.960609e-14
2.264929e-14
9.159574e-15
2.122544e-14
1.423851e-15
1.931206e-14
1.91338e-15
1.925872e-14
5.334326e-17
1.801117e-14
1.247551e-15
1.799209e-14
1.907371e-17
1.744519e-14
5.469022e-16
1.662717e-14
8.180246e-16
1.671466e-14
-8.749609e-17
1.634235e-14
3.723103e-16
1.587325e-14
4.690972e-16
1.534899e-14
5.242606e-16
1.623592e-14
-8.869309e-16
1.636613e-14
-1.302016e-16
1.623355e-14
1.325784e-16
1.612298e-14
1.105704e-16
1.647918e-14
-3.56199e-16
1.723552e-14
-7.56341e-16
1.725554e-14
-2.002739e-17
1.798958e-14
-7.340337e-16
1.927951e-14
-1.289933e-15
1.893498e-14
3.44532e-16
2.072332e-14
-1.788339e-15
3.667207e-14
-1.594875e-14
3.794165e-15
3.287791e-14
1.920702e-15
1.873463e-15
3.098876e-15
-1.178174e-15
2.061698e-15
1.037178e-15
1.773201e-15
2.884967e-16
1.416443e-15
3.567582e-16
1.03217e-15
3.842731e-16
7.733403e-16
2.588296e-16
8.218877e-16
-4.854746e-17
6.30011e-16
1.918768e-16
5.060487e-16
1.239624e-16
4.452824e-16
6.076633e-17
3.860279e-16
5.925459e-17
2.879546e-16
9.807334e-17
2.478976e-16
4.005707e-17
2.19332e-16
2.856567e-17
1.801915e-16
3.914056e-17
1.503836e-16
2.980798e-17
1.004835e-16
4.990011e-17
6.134546e-17
3.913808e-17
4.842e-17
1.29255e-17
8.0163e-18
4.040375e-17
-5.302734e-18
1.331908e-17
-1.316327e-17
7.860584e-18
-1.794108e-17
4.777856e-18
-2.334837e-17
5.40733e-18
-3.342459e-17
1.007627e-17
-4.787927e-17
1.445472e-17
-6.278652e-17
1.490731e-17
-8.646312e-17
2.367663e-17
-9.505713e-17
8.594053e-18
-1.523182e-16
5.726112e-17
-1.993918e-16
4.707364e-17
-2.363567e-16
3.696492e-17
-3.200925e-16
8.373587e-17
-3.309296e-16
1.083712e-17
-3.451519e-16
1.422236e-17
-3.864403e-16
4.128837e-17
-5.0308e-16
1.166398e-16
-6.217544e-16
1.186744e-16
-7.840048e-16
1.622503e-16
-9.591451e-16
1.751403e-16
-1.374435e-15
4.152902e-16
-1.623627e-15
2.491915e-16
-2.088995e-15
4.653677e-16
-2.783745e-15
6.947497e-16
-2.406091e-15
-3.776535e-16
-3.022921e-15
6.168298e-16
-3.671321e-14
3.369029e-14
-2.128982e-14
-1.542339e-14
-1.9251e-14
-2.038824e-15
-1.911435e-14
-1.366432e-16
-1.805172e-14
-1.062634e-15
-1.698072e-14
-1.070999e-15
-1.679334e-14
-1.873775e-16
-1.64755e-14
-3.178392e-16
-1.640943e-14
-6.607658e-17
-1.577602e-14
-6.334066e-16
-1.588502e-14
1.089984e-16
-1.6043e-14
1.579777e-16
-1.568831e-14
-3.546893e-16
-1.628779e-14
5.994846e-16
-1.637358e-14
8.578985e-17
-1.669899e-14
3.254087e-16
-1.686937e-14
1.703765e-16
-1.766258e-14
7.932082e-16
-1.818404e-14
5.214597e-16
-1.871262e-14
5.285848e-16
-1.850928e-14
-2.033422e-16
-1.914044e-14
6.311612e-16
-2.165116e-14
2.510716e-15
-2.368177e-14
2.030611e-15
-3.112377e-14
7.442001e-15
-5.083211e-14
1.970834e-14
-3.174146e-14
-1.909065e-14
-2.18691e-14
-9.872364e-15
-2.090478e-14
-9.643181e-16
-1.845574e-14
-2.449037e-15
-1.728461e-14
-1.171127e-15
-1.686332e-14
-4.212897e-16
-1.657399e-14
-2.893319e-16
-1.554683e-14
-1.027162e-15
-1.523437e-14
-3.124568e-16
-1.523078e-14
-3.595702e-18
-1.435259e-14
-8.781895e-16
-1.364484e-14
-7.077512e-16
-1.339693e-14
-2.479105e-16
-1.377908e-14
3.821536e-16
-1.327131e-14
-5.077733e-16
-1.263977e-14
-6.315314e-16
-1.256598e-14
-7.378972e-17
-1.233945e-14
-2.265347e-16
-1.217463e-14
-1.648244e-16
-1.239351e-14
2.188821e-16
-1.240439e-14
1.088353e-17
-1.236313e-14
-4.126119e-17
-1.264631e-14
2.831768e-16
-1.232061e-14
-3.256941e-16
-1.223053e-14
-9.008544e-17
-1.212097e-14
-1.095531e-16
-1.208418e-14
-3.679975e-17
-1.234044e-14
2.562651e-16
-1.259737e-14
2.569293e-16
-1.263119e-14
3.38187e-17
-1.282506e-14
1.93869e-16
-1.290755e-14
8.249603e-17
-1.355235e-14
6.447997e-16
-1.486638e-14
1.314028e-15
-1.347374e-16
-1.473164e-14
1.477864e-14
-1.491338e-14
1.346668e-14
1.311965e-15
1.282327e-14
6.434108e-16
1.27522e-14
7.107157e-17
1.255951e-14
1.926879e-16
1.253077e-14
2.874502e-17
1.230145e-14
2.293119e-16
1.205476e-14
2.466904e-16
1.210479e-14
-5.002446e-17
1.223322e-14
-1.284295e-16
1.234807e-14
-1.148534e-16
1.269652e-14
-3.484473e-16
1.242813e-14
2.683867e-16
1.250467e-14
-7.653478e-17
1.252545e-14
-2.078269e-17
1.23247e-14
2.007443e-16
1.252421e-14
-1.995055e-16
1.270821e-14
-1.839981e-16
1.273932e-14
-3.111664e-17
1.333483e-14
-5.955051e-16
1.38194e-14
-4.845712e-16
1.343153e-14
3.878723e-16
1.368537e-14
-2.53843e-16
1.43978e-14
-7.124276e-16
1.526967e-14
-8.718712e-16
1.525941e-14
1.025925e-17
1.554877e-14
-2.893631e-16
1.651273e-14
-9.639548e-16
1.671223e-14
-1.995036e-16
1.708783e-14
-3.756036e-16
1.810235e-14
-1.014519e-15
2.09353e-14
-2.832951e-15
2.25611e-14
-1.625792e-15
3.076659e-14
-8.205496e-15
-2.064836e-14
5.153712e-14
4.523148e-16
-6.690282e-14
5.177901e-14
1.070081e-15
4.931603e-14
3.106388e-15
4.89555e-14
4.31601e-16
4.83571e-14
7.910831e-16
4.816817e-14
2.176822e-16
4.743769e-14
9.597853e-16
4.644055e-14
1.243832e-15
4.657104e-14
-1.805128e-16
4.704809e-14
-6.054775e-16
4.752703e-14
-5.937932e-16
4.87431e-14
-1.564521e-15
4.794083e-14
1.070661e-15
4.802486e-14
-1.605663e-16
4.829535e-14
-2.912745e-16
4.740386e-14
1.09223e-15
4.815833e-14
-9.539721e-16
4.894139e-14
-9.670575e-16
4.909232e-14
-1.820508e-16
5.123075e-14
-2.733929e-15
5.297841e-14
-2.232231e-15
5.185226e-14
1.514023e-15
5.2798e-14
-1.199582e-15
5.54453e-14
-3.359736e-15
5.85306e-14
-3.957163e-15
5.888769e-14
-3.468373e-16
6.004564e-14
-1.447313e-15
6.35827e-14
-4.501016e-15
6.457502e-14
-1.191819e-15
6.606264e-14
-1.863222e-15
7.02378e-14
-5.189683e-15
8.144917e-14
-1.404432e-14
8.783348e-14
-8.010108e-15
1.224903e-13
-4.286229e-14
1.846641e-13
-8.282217e-14
-1.255597e-13
1.819214e-13
-7.545241e-14
-8.586819e-14
-4.956386e-14
-8.131854e-14
-5.513972e-15
-7.319971e-14
-1.056786e-14
-6.695066e-14
-7.420184e-15
-6.513039e-14
-2.241552e-15
-6.381894e-14
-1.60079e-15
-6.004403e-14
-4.802068e-15
-5.879645e-14
-1.560036e-15
-5.838473e-14
-4.153137e-16
-5.527633e-14
-3.986597e-15
-5.264455e-14
-3.339525e-15
-5.171855e-14
-1.173915e-15
-5.282153e-14
1.485137e-15
-5.098564e-14
-2.343668e-15
-4.871338e-14
-2.90379e-15
-4.839621e-14
-3.909556e-16
-4.747176e-14
-1.150983e-15
-4.682938e-14
-8.072104e-16
-4.780089e-14
1.190396e-15
-4.765061e-14
-1.393955e-16
-4.769458e-14
2.707128e-18
-4.855775e-14
1.146347e-15
-4.742821e-14
-1.455239e-15
-4.704315e-14
-4.751394e-16
-4.663743e-14
-5.152806e-16
-4.655503e-14
-1.191905e-16
-4.759778e-14
1.299008e-15
-4.842315e-14
1.082299e-15
-4.863326e-14
2.439316e-16
-4.923891e-14
7.995204e-16
-4.964417e-14
4.877562e-16
-5.210896e-14
3.10959e-15
-5.200192e-14
1.206988e-15
-6.628125e-14
-9.437914e-14
1.243011e-13
-4.534538e-14
-7.533385e-14
-2.108412e-14
-7.484388e-14
-6.266107e-16
-7.036649e-14
-5.540026e-15
-6.628796e-14
-5.149529e-15
-6.496241e-14
-1.512929e-15
-6.391727e-14
-1.362975e-15
-6.341741e-14
-5.659439e-16
-6.120264e-14
-2.848171e-15
-6.133888e-14
2.452385e-16
-6.18705e-14
6.895906e-16
-6.063675e-14
-1.588431e-15
-6.263539e-14
2.598118e-15
-6.326657e-14
7.169732e-16
-6.43861e-14
1.444938e-15
-6.521811e-14
1.002387e-15
-6.796248e-14
3.537574e-15
-7.020337e-14
2.762351e-15
-7.208392e-14
2.409139e-15
-7.173893e-14
-5.483317e-16
-7.43279e-14
3.220124e-15
-8.401516e-14
1.219798e-14
-9.203244e-14
1.004788e-14
-1.234041e-13
3.881364e-14
7.82257e-14
3.383886e-14
-1.24475e-13
1.235141e-13
9.623706e-15
2.608862e-14
1.285335e-14
-4.40782e-15
9.011508e-15
4.879022e-15
7.450876e-15
1.849129e-15
5.935571e-15
1.872063e-15
4.408115e-15
1.91173e-15
3.343378e-15
1.323567e-15
3.3204e-15
-2.55693e-17
2.641732e-15
8.705442e-16
2.109123e-15
6.565719e-16
1.851923e-15
3.179662e-16
1.586144e-15
3.250337e-16
1.215078e-15
4.691394e-16
1.033025e-15
2.221102e-16
9.053717e-16
1.562195e-16
7.469492e-16
1.975632e-16
6.195697e-16
1.571876e-16
4.247828e-16
2.446871e-16
2.72909e-16
1.910119e-16
2.048203e-16
8.101425e-17
5.690105e-17
1.883231e-16
-1.010362e-17
8.032384e-17
-4.570961e-17
4.346666e-17
-7.313952e-17
3.220785e-17
-9.944979e-17
3.171768e-17
-1.461417e-16
5.676827e-17
-2.073377e-16
7.56508e-17
-2.747521e-16
8.232185e-17
-3.666377e-16
1.155622e-16
-4.213118e-16
6.326822e-17
-6.355399e-16
2.714893e-16
-8.288784e-16
2.404122e-16
-1.00217e-15
2.102569e-16
-1.310272e-15
3.918381e-16
-1.384683e-15
8.524776e-17
-1.463573e-15
9.311209e-17
-1.667287e-15
2.450025e-16
-2.124685e-15
5.740385e-16
-2.648322e-15
6.423113e-16
-3.299019e-15
8.129467e-16
-4.161711e-15
1.037833e-15
-5.70672e-15
1.960299e-15
-6.980406e-15
1.522877e-15
-8.91343e-15
2.398392e-15
-1.205042e-14
3.831736e-15
-1.07433e-14
-1.68477e-15
-3.141813e-14
2.129166e-14
1.265733e-13
1.258639e-13
7.840628e-14
8.892739e-14
4.609607e-14
8.429515e-14
6.056095e-15
7.51444e-14
1.106413e-14
7.419403e-14
1.003716e-15
6.986814e-14
5.573438e-15
6.925638e-14
6.308363e-16
6.725618e-14
2.547105e-15
6.424884e-14
3.825357e-15
6.428156e-14
-1.202124e-16
6.308011e-14
1.573765e-15
6.117465e-14
2.374549e-15
5.954082e-14
2.158098e-15
6.264061e-14
-3.986723e-15
6.322338e-14
-7.129764e-16
6.265973e-14
6.962284e-16
6.236939e-14
4.009113e-16
6.397208e-14
-1.958887e-15
6.663484e-14
-3.419097e-15
6.726495e-14
-6.501426e-16
7.018715e-14
-3.656235e-15
7.526911e-14
-6.371888e-15
7.414873e-14
1.464911e-15
9.227658e-14
-1.99162e-14
-4.814719e-14
2.802146e-13
-3.881455e-13
1.863372e-13
2.004516e-13
1.258591e-13
1.871581e-13
1.934958e-14
1.667811e-13
3.144108e-14
1.635416e-13
4.243232e-15
1.544592e-13
1.465583e-14
1.524102e-13
2.679887e-15
1.480576e-13
6.899669e-15
1.416169e-13
1.026612e-14
1.413205e-13
1.761026e-16
1.389243e-13
3.969955e-15
1.347875e-13
6.511433e-15
1.316887e-13
5.25689e-15
1.381989e-13
-1.0497e-14
1.394723e-13
-1.986354e-15
1.382203e-13
1.948205e-15
1.378822e-13
7.390567e-16
1.418052e-13
-5.8819e-15
1.475254e-13
-9.139288e-15
1.496801e-13
-2.80489e-15
1.567622e-13
-1.073832e-14
1.677171e-13
-1.732678e-14
1.685633e-13
6.187667e-16
2.148751e-13
-6.622803e-14
2.527244e-13
-8.599645e-14
9.876109e-14
2.774773e-13
2.930893e-14
9.554078e-14
3.025549e-14
-5.354376e-15
2.203392e-14
1.310059e-14
1.77331e-14
6.14995e-15
1.409111e-14
5.51405e-15
1.060832e-14
5.394525e-15
8.073331e-15
3.858551e-15
7.703346e-15
3.444162e-16
6.239186e-15
2.334704e-15
4.99174e-15
1.904018e-15
4.359884e-15
9.49823e-16
3.717203e-15
9.677149e-16
2.891524e-15
1.294818e-15
2.444384e-15
6.692511e-16
2.125417e-15
4.751866e-16
1.756359e-15
5.666211e-16
1.45345e-15
4.600971e-16
1.017344e-15
6.807932e-16
6.746797e-16
5.336759e-16
4.982229e-16
2.574712e-16
1.751095e-16
5.114366e-16
3.577032e-18
2.518565e-16
-9.139133e-17
1.384352e-16
-1.684493e-16
1.092659e-16
-2.402317e-16
1.035002e-16
-3.583692e-16
1.74906e-16
-5.077926e-16
2.250743e-16
-6.729706e-16
2.475e-16
-8.857173e-16
3.283091e-16
-1.038655e-15
2.162064e-16
-1.508367e-15
7.412015e-16
-1.960787e-15
6.928314e-16
-2.391878e-15
6.413484e-16
-3.06461e-15
1.06457e-15
-3.277469e-15
2.981076e-16
-3.512515e-15
3.281579e-16
-4.035801e-15
7.682885e-16
-5.088806e-15
1.627044e-15
-6.345663e-15
1.899168e-15
-7.89129e-15
2.358574e-15
-1.006635e-14
3.212896e-15
-1.353215e-14
5.426101e-15
-1.677634e-14
4.767058e-15
-2.164713e-14
7.269185e-15
-2.887859e-14
1.10632e-14
-3.091429e-14
3.509251e-16
-9.398756e-14
8.436493e-14
-2.519141e-13
2.844998e-13
-2.192092e-13
-7.805033e-14
-1.712465e-13
-6.904674e-14
-1.670512e-13
-4.822001e-15
-1.571528e-13
-1.54384e-14
-1.476777e-13
-1.462459e-14
-1.438762e-13
-5.314444e-15
-1.415523e-13
-3.686903e-15
-1.402203e-13
-1.897917e-15
-1.355037e-13
-7.564729e-15
-1.353474e-13
8.892549e-17
-1.363666e-13
1.708771e-15
-1.337127e-13
-4.242369e-15
-1.377307e-13
6.616172e-15
-1.394474e-13
2.433619e-15
-1.418717e-13
3.869245e-15
-1.438002e-13
2.930957e-15
-1.494809e-13
9.218208e-15
-1.546368e-13
7.918294e-15
-1.587525e-13
6.524809e-15
-1.586193e-13
-6.815261e-16
-1.651491e-13
9.749931e-15
-1.902502e-13
3.72991e-14
-2.062521e-13
2.604971e-14
-2.749615e-13
1.075231e-13
-3.818703e-13
1.851346e-13
-2.793492e-13
-1.779735e-13
-1.936084e-13
-1.353047e-13
-1.803057e-13
-1.881673e-14
-1.624682e-13
-2.840529e-14
-1.479802e-13
-2.19082e-14
-1.435624e-13
-6.659364e-15
-1.403889e-13
-4.774279e-15
-1.323205e-13
-1.287053e-14
-1.294237e-13
-4.456807e-15
-1.279343e-13
-1.904654e-15
-1.214395e-13
-1.048141e-14
-1.159313e-13
-8.847722e-15
-1.138487e-13
-3.256519e-15
-1.157141e-13
3.350456e-15
-1.118053e-13
-6.252434e-15
-1.071249e-13
-7.584136e-15
-1.064016e-13
-1.114296e-15
-1.042615e-13
-3.291049e-15
-1.028867e-13
-2.182028e-15
-1.051654e-13
3.469052e-15
-1.046396e-13
-6.651993e-16
-1.049469e-13
3.100083e-16
-1.065963e-13
2.795723e-15
-1.042272e-13
-3.824286e-15
-1.033679e-13
-1.334443e-15
-1.025169e-13
-1.366247e-15
-1.024952e-13
-1.409159e-16
-1.048503e-13
3.65413e-15
-1.064952e-13
2.727166e-15
-1.069986e-13
7.473363e-16
-1.081703e-13
1.971172e-15
-1.092476e-13
1.565064e-15
-1.134682e-13
7.3302e-15
-1.037471e-13
-8.514114e-15
-9.135266e-16
-1.691148e-13
1.025855e-13
-1.704019e-13
1.127081e-13
-9.052528e-15
1.085186e-13
7.295894e-15
1.075396e-13
1.410647e-15
1.063906e-13
1.940069e-15
1.059312e-13
6.770421e-16
1.044811e-13
2.409887e-15
1.02237e-13
3.487949e-15
1.023623e-13
-3.057898e-16
1.033661e-13
-1.609256e-15
1.044289e-13
-1.656653e-15
1.069881e-13
-4.123721e-15
1.054761e-13
2.582654e-15
1.054371e-13
-1.214914e-16
1.062269e-13
-1.081053e-15
1.041335e-13
3.185588e-15
1.057306e-13
-2.551096e-15
1.075879e-13
-2.824368e-15
1.079507e-13
-5.44844e-16
1.123426e-13
-7.125794e-15
1.160609e-13
-5.9505e-15
1.141422e-13
3.43263e-15
1.162626e-13
-3.31997e-15
1.218011e-13
-8.89824e-15
1.282467e-13
-1.040269e-14
1.296145e-13
-1.714696e-15
1.323122e-13
-4.144949e-15
1.398772e-13
-1.206601e-14
1.423742e-13
-3.688883e-15
1.459862e-13
-5.47516e-15
1.593124e-13
-1.851593e-14
1.806812e-13
-3.541307e-14
1.970553e-13
-2.438424e-14
2.735282e-13
-1.193352e-13
-1.974395e-13
1.701714e-13
1.614471e-15
-3.421878e-13
2.049252e-13
-4.380627e-14
2.016798e-13
1.054128e-14
1.99835e-13
3.255398e-15
1.979533e-13
3.821816e-15
1.971917e-13
1.43858e-15
1.946747e-13
4.926948e-15
1.904527e-13
7.709963e-15
1.903347e-13
-1.878448e-16
1.921014e-13
-3.375906e-15
1.940354e-13
-3.590658e-15
1.987443e-13
-8.832611e-15
1.96188e-13
5.13895e-15
1.958886e-13
1.778765e-16
1.975536e-13
-2.74604e-15
1.935232e-13
7.215934e-15
1.963343e-13
-5.362121e-15
2.000437e-13
-6.533803e-15
2.007445e-13
-1.245661e-15
2.082956e-13
-1.467692e-14
2.151033e-13
-1.275819e-14
2.124408e-13
6.095154e-15
2.16576e-13
-7.455173e-15
2.262191e-13
-1.854137e-14
2.377943e-13
-2.197789e-14
2.412416e-13
-5.161977e-15
2.466407e-13
-9.544019e-15
2.604788e-13
-2.590409e-14
2.655899e-13
-8.80001e-15
2.731497e-13
-1.303495e-14
3.002048e-13
-4.5571e-14
3.390706e-13
-7.427896e-14
3.763152e-13
-6.162881e-14
5.11147e-13
-2.54167e-13
6.959852e-13
-3.822777e-13
-5.207952e-13
6.844445e-13
-3.416228e-13
-3.710405e-13
-2.850593e-13
-3.38237e-13
-5.162026e-14
-3.049888e-13
-6.165352e-14
-2.766007e-13
-5.029631e-14
-2.677559e-13
-1.550415e-14
-2.614058e-13
-1.112435e-14
-2.466792e-13
-2.759711e-14
-2.409062e-13
-1.022981e-14
-2.372316e-13
-5.579267e-15
-2.255664e-13
-2.21466e-14
-2.159731e-13
-1.844107e-14
-2.118977e-13
-7.331837e-15
-2.144568e-13
5.909546e-15
-2.073036e-13
-1.340565e-14
-1.992232e-13
-1.566457e-14
-1.978712e-13
-2.466286e-15
-1.936711e-13
-7.491081e-15
-1.912483e-13
-4.60492e-15
-1.956307e-13
7.851451e-15
-1.944596e-13
-1.83625e-15
-1.95234e-13
1.084371e-15
-1.980473e-13
5.609037e-15
-1.936943e-13
-8.177264e-15
-1.92133e-13
-2.895707e-15
-1.906409e-13
-2.858377e-15
-1.909509e-13
1.690573e-16
-1.953928e-13
8.096e-15
-1.982536e-13
5.587996e-15
-1.990853e-13
1.579086e-15
-2.010258e-13
3.911619e-15
-2.030547e-13
3.593992e-15
-2.064509e-13
1.072638e-14
-1.724601e-13
-4.250494e-14
-3.399604e-13
-4.140553e-13
4.450411e-13
-1.090362e-13
-3.333429e-13
-1.497592e-13
-3.16069e-13
-2.209583e-14
-2.98143e-13
-3.336439e-14
-2.787959e-13
-3.397175e-14
-2.702326e-13
-1.387778e-14
-2.654015e-13
-8.517959e-15
-2.62761e-13
-4.538397e-15
-2.539473e-13
-1.637848e-14
-2.528604e-13
-9.979287e-16
-2.544682e-13
3.316556e-15
-2.49406e-13
-9.304579e-15
-2.564256e-13
1.363583e-14
-2.599635e-13
5.971492e-15
-2.646682e-13
8.573974e-15
-2.681531e-13
6.415791e-15
-2.783198e-13
1.938493e-14
-2.88113e-13
1.771148e-14
-2.960848e-13
1.449659e-14
-2.967924e-13
2.60651e-17
-3.109914e-13
2.394902e-14
-3.574281e-13
8.373574e-14
-3.931122e-13
6.173378e-14
-5.128959e-13
2.273068e-13
3.566832e-13
2.133036e-13
-4.470598e-13
5.112335e-13
7.659239e-14
2.32252e-13
6.168817e-14
9.549839e-15
4.600567e-14
2.87831e-14
3.613439e-14
1.602122e-14
2.857591e-14
1.307254e-14
2.176555e-14
1.220488e-14
1.65672e-14
9.056901e-15
1.532205e-14
1.589565e-15
1.252016e-14
5.1366e-15
1.007401e-14
4.350165e-15
8.738027e-15
2.285807e-15
7.436326e-15
2.269416e-15
5.847359e-15
2.883786e-15
4.928735e-15
1.587876e-15
4.251991e-15
1.151931e-15
3.514941e-15
1.303672e-15
2.906781e-15
1.068256e-15
2.074137e-15
1.513438e-15
1.410705e-15
1.197107e-15
1.039966e-15
6.282103e-16
4.261483e-16
1.125255e-15
6.55344e-17
6.124706e-16
-1.523113e-16
3.562811e-16
-3.287028e-16
2.856576e-16
-4.942625e-16
2.690602e-16
-7.459248e-16
4.265686e-16
-1.059377e-15
5.38527e-16
-1.398291e-15
5.864141e-16
-1.827942e-15
7.579604e-16
-2.16629e-15
5.545543e-16
-3.053015e-15
1.627927e-15
-3.956519e-15
1.596335e-15
-4.848448e-15
1.533278e-15
-6.123915e-15
2.340038e-15
-6.606049e-15
7.802413e-16
-7.188864e-15
9.109732e-16
-8.304492e-15
1.883917e-15
-1.04059e-14
3.728454e-15
-1.294502e-14
4.438287e-15
-1.615037e-14
5.563923e-15
-2.06783e-14
7.740821e-15
-2.751713e-14
1.226493e-14
-3.435579e-14
1.160572e-14
-4.521678e-14
1.813018e-14
-5.93883e-14
2.523471e-14
-7.856981e-14
1.953244e-14
-2.051177e-13
2.109128e-13
5.244233e-13
5.224723e-13
3.598501e-13
3.836584e-13
2.64673e-13
3.513687e-13
5.163929e-14
3.131105e-13
6.969925e-14
3.054685e-13
1.188526e-14
2.887808e-13
3.13436e-14
2.839992e-13
7.461478e-15
2.75794e-13
1.510479e-14
2.63991e-13
2.206918e-14
2.630004e-13
1.166705e-15
2.588008e-13
8.169485e-15
2.514881e-13
1.382422e-14
2.46385e-13
1.035993e-14
2.582578e-13
-2.236979e-14
2.604049e-13
-4.133448e-15
2.581432e-13
4.209884e-15
2.581464e-13
7.359066e-16
2.661995e-13
-1.393505e-14
2.770129e-13
-1.995263e-14
2.822438e-13
-8.035846e-15
2.97264e-13
-2.57585e-14
3.169536e-13
-3.701634e-14
3.280931e-13
-1.05208e-14
4.06738e-13
-1.448728e-13
-1.263183e-13
8.946049e-13
-1.151387e-12
6.166319e-13
6.782453e-13
4.810326e-13
6.096335e-13
1.202512e-13
5.429142e-13
1.364185e-13
5.272626e-13
2.753688e-14
4.985032e-13
6.010302e-14
4.88713e-13
1.725169e-14
4.74253e-13
2.956471e-14
4.541423e-13
4.217989e-14
4.518512e-13
3.457788e-15
4.450823e-13
1.493841e-14
4.333571e-13
2.554947e-14
4.257106e-13
1.800641e-14
4.458636e-13
-4.252279e-14
4.490354e-13
-7.305224e-15
4.453158e-13
7.929413e-15
4.465789e-13
-5.271765e-16
4.620147e-13
-2.937083e-14
4.812409e-13
-3.917888e-14
4.926419e-13
-1.94368e-14
5.220135e-13
-5.513014e-14
5.558274e-13
-7.083017e-14
5.891887e-13
-4.388213e-14
6.971825e-13
-2.528666e-13
7.331499e-13
-1.622858e-13
4.038607e-13
8.405228e-13
1.757445e-13
4.603682e-13
1.206958e-13
6.459853e-14
8.975489e-14
5.972398e-14
6.904303e-14
3.673309e-14
5.413002e-14
2.798554e-14
4.162934e-14
2.470557e-14
3.169457e-14
1.899167e-14
2.849344e-14
4.790694e-15
2.338945e-14
1.024059e-14
1.893112e-14
8.808488e-15
1.631294e-14
4.903993e-15
1.386252e-14
4.71984e-15
1.099553e-14
5.750777e-15
9.251439e-15
3.331963e-15
7.919891e-15
2.483478e-15
6.546018e-15
2.677546e-15
5.413366e-15
2.200909e-15
3.931582e-15
2.995222e-15
2.735216e-15
2.393474e-15
2.023632e-15
1.339794e-15
9.307285e-16
2.218159e-15
2.325141e-16
1.310685e-15
-2.270753e-16
8.158709e-16
-5.952686e-16
6.538513e-16
-9.450568e-16
6.188487e-16
-1.441893e-15
9.23405e-16
-2.055239e-15
1.151874e-15
-2.69853e-15
1.229705e-15
-3.513168e-15
1.572599e-15
-4.189506e-15
1.230893e-15
-5.753339e-15
3.19176e-15
-7.436064e-15
3.279061e-15
-9.141554e-15
3.238768e-15
-1.141e-14
4.608482e-15
-1.240674e-14
1.776983e-15
-1.370856e-14
2.212798e-15
-1.59026e-14
4.077951e-15
-1.983647e-14
7.662326e-15
-2.46238e-14
9.225614e-15
-3.086463e-14
1.180476e-14
-3.959927e-14
1.647546e-14
-5.232821e-14
2.499387e-14
-6.591865e-14
2.519615e-14
-8.842444e-14
4.063597e-14
-1.1693e-13
5.374024e-14
-1.77781e-13
8.038348e-14
-3.909101e-13
4.240419e-13
-7.292001e-13
8.627133e-13
-7.081039e-13
-1.301324e-13
-5.98774e-13
-2.59089e-13
-5.548403e-13
-6.602956e-14
-5.239931e-13
-6.421156e-14
-4.872744e-13
-7.069054e-14
-4.695077e-13
-3.164449e-14
-4.599038e-13
-1.812181e-14
-4.551896e-13
-9.252576e-15
-4.397737e-13
-3.179439e-14
-4.363417e-13
-4.429932e-15
-4.385724e-13
5.547286e-15
-4.294161e-13
-1.846087e-14
-4.408392e-13
2.505892e-14
-4.473673e-13
1.249958e-14
-4.55936e-13
1.714261e-14
-4.615545e-13
1.203432e-14
-4.784164e-13
3.624686e-14
-4.954981e-13
3.479319e-14
-5.101024e-13
2.910081e-14
-5.129159e-13
2.839561e-15
-5.409453e-13
5.197847e-14
-6.20058e-13
1.628484e-13
-6.9196e-13
1.336358e-13
-8.784974e-13
4.138443e-13
-1.132448e-12
6.106338e-13
-8.918428e-13
-5.82228e-13
-6.569854e-13
-5.199168e-13
-5.866334e-13
-1.219722e-13
-5.287909e-13
-1.19496e-13
-4.773463e-13
-1.01741e-13
-4.610579e-13
-3.179254e-14
-4.49414e-13
-2.276817e-14
-4.244801e-13
-5.253106e-14
-4.137593e-13
-2.095061e-14
-4.05955e-13
-1.338361e-14
-3.864713e-13
-4.163024e-14
-3.712858e-13
-3.362664e-14
-3.638834e-13
-1.473419e-14
-3.666831e-13
8.709268e-15
-3.545205e-13
-2.556829e-14
-3.418412e-13
-2.834389e-14
-3.395403e-13
-4.767154e-15
-3.319176e-13
-1.511384e-14
-3.280648e-13
-8.457663e-15
-3.357637e-13
1.555034e-14
-3.334767e-13
-4.123266e-15
-3.351072e-13
2.714926e-15
-3.396087e-13
1.011054e-14
-3.321001e-13
-1.568591e-14
-3.29498e-13
-5.497804e-15
-3.271604e-13
-5.196006e-15
-3.283804e-13
1.389065e-15
-3.361056e-13
1.582126e-14
-3.406651e-13
1.01475e-14
-3.416876e-13
2.60156e-15
-3.444872e-13
6.711164e-15
-3.468446e-13
5.951423e-15
-3.413831e-13
5.264925e-15
-2.591039e-13
-1.247842e-13
-2.647392e-15
-5.964169e-13
2.550632e-13
-5.998983e-13
3.385455e-13
-1.272886e-13
3.444248e-13
4.661955e-15
3.424061e-13
5.274095e-15
3.397412e-13
6.486711e-15
3.388134e-13
2.36636e-15
3.348141e-13
8.92633e-15
3.274859e-13
1.503818e-14
3.265962e-13
7.0176e-16
3.293854e-13
-6.165016e-15
3.32616e-13
-6.821307e-15
3.407416e-13
-1.695821e-14
3.366792e-13
9.201374e-15
3.358194e-13
1.037616e-15
3.389621e-13
-5.888724e-15
3.318797e-13
1.429836e-14
3.363673e-13
-9.84976e-15
3.431964e-13
-1.336289e-14
3.444203e-13
-2.46953e-15
3.562027e-13
-2.645933e-14
3.677905e-13
-2.4346e-14
3.648068e-13
9.078902e-15
3.722937e-13
-1.494211e-14
3.875533e-13
-3.380093e-14
4.068848e-13
-4.130944e-14
4.142965e-13
-1.257366e-14
4.243733e-13
-1.962082e-14
4.478765e-13
-4.94073e-14
4.574053e-13
-1.832883e-14
4.717507e-13
-2.738034e-14
5.22242e-13
-9.60623e-14
5.879385e-13
-1.399754e-13
6.643368e-13
-1.380272e-13
8.770792e-13
-4.669093e-13
-6.565852e-13
3.559115e-13
4.125771e-15
-9.599356e-13
5.236788e-13
-2.950559e-13
5.574116e-13
-2.90709e-14
5.590145e-13
3.671281e-15
5.562251e-13
9.276067e-15
5.557885e-13
2.802996e-15
5.500393e-13
1.46755e-14
5.378021e-13
2.727541e-14
5.350446e-13
3.459186e-15
5.390071e-13
-1.012753e-14
5.441806e-13
-1.199477e-14
5.578191e-13
-3.059675e-14
5.51649e-13
1.537148e-14
5.49508e-13
3.178694e-15
5.551898e-13
-1.157056e-14
5.433709e-13
2.61172e-14
5.500396e-13
-1.651842e-14
5.620643e-13
-2.538756e-14
5.640712e-13
-4.476399e-15
5.812037e-13
-4.359192e-14
6.00138e-13
-4.32803e-14
5.980459e-13
1.1171e-14
6.109634e-13
-2.785956e-14
6.335873e-13
-5.642483e-14
6.646463e-13
-7.236851e-14
6.792294e-13
-2.715677e-14
6.974005e-13
-3.77919e-14
7.357343e-13
-8.774108e-14
7.525127e-13
-3.510726e-14
7.784432e-13
-5.331078e-14
8.683578e-13
-1.859769e-13
9.754645e-13
-2.470821e-13
1.119338e-12
-2.819005e-13
1.431382e-12
-7.789536e-13
1.812877e-12
-1.038081e-12
-1.452737e-12
1.784181e-12
-9.136716e-13
-1.109901e-12
-8.627528e-13
-9.739052e-13
-2.579684e-13
-8.763883e-13
-2.170128e-13
-7.871e-13
-1.910293e-13
-7.584086e-13
-6.048393e-14
-7.381505e-13
-4.302627e-14
-6.976414e-13
-9.30401e-14
-6.784243e-13
-4.016774e-14
-6.631905e-13
-2.861745e-14
-6.318859e-13
-7.293481e-14
-6.093644e-13
-5.614818e-14
-5.965558e-13
-2.754276e-14
-5.983388e-13
1.049233e-14
-5.784974e-13
-4.540973e-14
-5.59916e-13
-4.692529e-14
-5.562158e-13
-8.467396e-15
-5.42954e-13
-2.837561e-14
-5.372846e-13
-1.412708e-14
-5.501455e-13
2.841122e-14
-5.458821e-13
-8.386622e-15
-5.492041e-13
6.036922e-15
-5.560839e-13
1.699029e-14
-5.434702e-13
-2.82996e-14
-5.393064e-13
-9.66155e-15
-5.360461e-13
-8.456349e-15
-5.393469e-13
4.689931e-15
-5.522652e-13
2.873954e-14
-5.588812e-13
1.676347e-14
-5.594233e-13
3.143667e-15
-5.625026e-13
9.790513e-15
-5.615307e-13
4.979505e-15
-5.286825e-13
-2.758332e-14
-3.62588e-13
-2.908787e-13
-9.548791e-13
-1.139837e-12
1.13768e-12
-1.279747e-13
-1.021119e-12
-3.778072e-13
-9.349843e-13
-1.521646e-13
-8.830139e-13
-1.16182e-13
-8.167434e-13
-1.36961e-13
-7.808624e-13
-6.752551e-14
-7.623685e-13
-3.661563e-14
-7.542886e-13
-1.733255e-14
-7.285434e-13
-5.753954e-14
-7.195443e-13
-1.342903e-14
-7.22346e-13
8.348966e-15
-7.062077e-13
-3.459922e-14
-7.240423e-13
4.289359e-14
-7.354373e-13
2.389453e-14
-7.503449e-13
3.205018e-14
-7.588433e-13
2.053275e-14
-7.85436e-13
6.283958e-14
-8.139653e-13
6.332246e-14
-8.399921e-13
5.512766e-14
-8.472185e-13
1.006596e-14
-8.994993e-13
1.042592e-13
-1.028764e-12
2.921134e-13
-1.16193e-12
2.668012e-13
-1.431175e-12
6.830899e-13
9.636393e-13
7.074194e-13
-1.143862e-12
1.276966e-12
3.657364e-13
8.020513e-13
2.332758e-13
1.970591e-13
1.698219e-13
1.231778e-13
1.282441e-13
7.831098e-14
9.921904e-14
5.701055e-14
7.684842e-14
4.707619e-14
5.860753e-14
3.723256e-14
5.127701e-14
1.212121e-14
4.217496e-14
1.934264e-14
3.428867e-14
1.669478e-14
2.938484e-14
9.807825e-15
2.492725e-14
9.177429e-15
1.990993e-14
1.07681e-14
1.673384e-14
6.508052e-15
1.421994e-14
4.997373e-15
1.174786e-14
5.149633e-15
9.719215e-15
4.229553e-15
7.169937e-15
5.544501e-15
5.092615e-15
4.470796e-15
3.791831e-15
2.640579e-15
1.910688e-15
4.099303e-15
6.123165e-16
2.609057e-15
-3.076291e-16
1.735817e-15
-1.036697e-15
1.38292e-15
-1.737035e-15
1.319187e-15
-2.679183e-15
1.865553e-15
-3.836808e-15
2.3095e-15
-5.007991e-15
2.400888e-15
-6.502473e-15
3.067081e-15
-7.779779e-15
2.508199e-15
-1.044536e-14
5.857337e-15
-1.347299e-14
6.306697e-15
-1.661316e-14
6.378939e-15
-2.05174e-14
8.512726e-15
-2.248419e-14
3.743774e-15
-2.520559e-14
4.93419e-15
-2.934394e-14
8.216303e-15
-3.648194e-14
1.480033e-14
-4.524577e-14
1.798945e-14
-5.700563e-14
2.356462e-14
-7.332122e-14
3.279104e-14
-9.633365e-14
4.800631e-14
-1.230072e-13
5.186971e-14
-1.677663e-13
8.539509e-14
-2.273712e-13
1.133451e-13
-3.674461e-13
2.204584e-13
-6.87923e-13
7.445188e-13
1.31247e-12
1.457077e-12
9.724321e-13
1.144069e-12
7.940405e-13
1.011949e-12
2.523714e-13
8.997488e-13
2.486188e-13
8.70198e-13
5.708763e-14
8.223362e-13
1.079649e-13
8.035165e-13
3.607137e-14
7.789921e-13
5.408912e-14
7.45959e-13
7.521303e-14
7.413949e-13
8.021877e-15
7.313215e-13
2.501182e-14
7.135169e-13
4.335401e-14
7.030872e-13
2.84361e-14
7.357924e-13
-7.5228e-14
7.400109e-13
-1.152369e-14
7.341789e-13
1.376143e-14
7.387308e-13
-5.079099e-15
7.676329e-13
-5.827294e-14
8.005929e-13
-7.213882e-14
8.24336e-13
-4.317997e-14
8.786532e-13
-1.094472e-13
9.358458e-13
-1.280228e-13
1.00395e-12
-1.119859e-13
1.125446e-12
-3.743631e-13
-1.807019e-13
2.297557e-12
-2.758579e-12
1.433454e-12
1.869649e-12
1.221949e-12
1.634982e-12
4.870382e-13
1.449173e-12
4.344279e-13
1.397991e-12
1.082699e-13
1.318324e-12
1.876316e-13
1.283566e-12
7.082964e-14
1.2441e-12
9.355466e-14
1.189547e-12
1.297664e-13
1.181389e-12
1.617944e-14
1.167659e-12
3.874208e-14
1.142491e-12
6.852157e-14
1.128537e-12
4.239003e-14
1.181485e-12
-1.281754e-13
1.185496e-12
-1.553493e-14
1.176593e-12
2.266452e-14
1.188703e-12
-1.718914e-14
1.242252e-12
-1.118219e-13
1.298858e-12
-1.28745e-13
1.345048e-12
-8.936957e-14
1.443807e-12
-2.082072e-13
1.536117e-12
-2.203321e-13
1.644515e-12
-2.203844e-13
1.746847e-12
-4.766953e-13
1.719078e-12
-1.529323e-13
1.178795e-12
1.817248e-12
7.044556e-13
1.276391e-12
4.470165e-13
4.544982e-13
3.180104e-13
2.52184e-13
2.358146e-13
1.605067e-13
1.792092e-13
1.13616e-13
1.395657e-13
8.671966e-14
1.064993e-13
7.029903e-14
9.095362e-14
2.766686e-14
7.471167e-14
3.558459e-14
6.089992e-14
3.050654e-14
5.198928e-14
1.871847e-14
4.400617e-14
1.716054e-14
3.532546e-14
1.944882e-14
2.968202e-14
1.215149e-14
2.504356e-14
9.635841e-15
2.067292e-14
9.520271e-15
1.712188e-14
7.780593e-15
1.279763e-14
9.868754e-15
9.25318e-15
8.015247e-15
6.964481e-15
4.929279e-15
3.7687e-15
7.295086e-15
1.404837e-15
4.97292e-15
-3.724094e-16
3.513065e-15
-1.77024e-15
2.780752e-15
-3.116607e-15
2.665555e-15
-4.868156e-15
3.617103e-15
-7.00463e-15
4.445977e-15
-9.101224e-15
4.497484e-15
-1.178513e-14
5.750989e-15
-1.410675e-14
4.829826e-15
-1.858643e-14
1.033702e-14
-2.393501e-14
1.165528e-14
-2.961157e-14
1.20555e-14
-3.627056e-14
1.517172e-14
-4.00022e-14
7.475423e-15
-4.545551e-14
1.03875e-14
-5.306839e-14
1.582919e-14
-6.586903e-14
2.760096e-14
-8.174511e-14
3.386554e-14
-1.035348e-13
4.535435e-14
-1.3355e-13
6.280619e-14
-1.74916e-13
8.937233e-14
-2.271557e-13
1.041094e-13
-3.148641e-13
1.731035e-13
-4.375468e-13
2.360277e-13
-7.065115e-13
4.894231e-13
-1.151047e-12
1.189054e-12
-1.712727e-12
1.87415e-12
-1.764211e-12
-7.649058e-14