/*--------------------------------*- C++ -*----------------------------------*\
| =========                 |                                                 |
| \\      /  F ield         | OpenFOAM: The Open Source CFD Toolbox           |
|  \\    /   O peration     | Version:  2406                                  |
|   \\  /    A nd           | Website:  www.openfoam.com                      |
|    \\/     M anipulation  |                                                 |
\*---------------------------------------------------------------------------*/
FoamFile
{
    version     2.0;
    format      ascii;
    arch        "LSB;label=32;scalar=64";
    class       surfaceScalarField;
    location    "1.38";
    object      phi;
}
// * * * * * * * * * * * * * * * * * * * * * * * * * * * * * * * * * * * * * //

dimensions      [0 3 -1 0 0 0 0];

oriented        oriented;

internalField   nonuniform List<scalar> 
326221
(
-0.002178119
-0.005375604
0.007553723
-0.001431767
-0.0007463527
0.0009334476
-0.002365214
0.0001595102
0.0007739374
-0.001091493
0.001251003
-0.0005156063
-0.0005758864
-4.063987e-05
-0.0004749664
-6.116723e-05
2.052735e-05
-0.0002182873
0.0001571201
-0.0001883734
-2.991398e-05
-0.0001313134
-5.705991e-05
-0.0001350608
3.747372e-06
-4.915412e-05
-8.59067e-05
0.0001215464
-0.0001707006
0.00030732
-0.0001857736
0.0002714302
3.588982e-05
-9.213009e-05
0.0003635603
-0.0003463939
0.0002542638
-0.0002292867
-0.0001171072
-3.299068e-05
-0.000196296
6.197079e-05
-9.496147e-05
0.0001106712
-4.870043e-05
0.0001639659
-5.329465e-05
0.0002005519
-3.658599e-05
0.0002237677
-2.321588e-05
0.0002402217
-1.6454e-05
0.000260052
-1.983024e-05
0.0002911414
-3.10894e-05
0.0003299228
-3.878139e-05
0.0003724396
-4.25168e-05
0.0004294356
-5.699602e-05
0.0004944466
-6.501098e-05
0.0005595433
-6.509668e-05
0.0006221447
-6.260147e-05
0.000706154
-8.400925e-05
0.0008168373
-0.0001106833
0.0009315001
-0.0001146629
0.001050135
-0.0001186348
0.001160296
-0.0001101614
0.001253846
-9.355009e-05
0.001326233
-7.238705e-05
0.001381706
-5.547224e-05
0.001426057
-4.435143e-05
0.001459844
-3.378713e-05
0.001496809
-3.696511e-05
0.001545533
-4.87233e-05
0.001587738
-4.220565e-05
0.001697545
-0.0001098071
0.001954949
-0.000257404
0.001983588
-2.863865e-05
-0.0002324737
0.002216062
-0.0004044569
0.0001719832
-0.0006469913
0.0002425344
-0.0009282955
0.0002813042
-0.001089531
0.0001612357
-0.001122033
3.250148e-05
-0.001108196
-1.383615e-05
-0.001045506
-6.269026e-05
-0.0008476346
-0.0001978716
-0.0005177743
-0.0003298603
-0.0001971655
-0.0003206088
4.740888e-06
-0.0002019064
0.0004605951
-0.0004558542
0.0008234846
-0.0003628895
0.001193063
-0.0003695789
0.001595286
-0.0004022224
0.002012363
-0.0004170775
0.002378903
-0.0003665395
0.002748544
-0.0003696413
0.003105254
-0.0003567096
0.003450794
-0.0003455404
0.003771116
-0.0003203218
0.004066394
-0.0002952777
0.004339015
-0.0002726211
0.004586606
-0.0002475911
0.004802069
-0.0002154633
0.004991585
-0.000189516
0.005155472
-0.000163887
0.0052886
-0.0001331277
0.005406523
-0.0001179232
0.0055031
-9.657682e-05
0.005572263
-6.91635e-05
0.005567059
5.204215e-06
0.005377596
0.000189463
0.005263288
0.0001143082
0.005062122
0.0002011664
0.004707559
0.0003545624
0.004078959
0.0006286006
0.003084748
0.0009942109
0.001707141
0.001377607
0.0001911472
0.001515994
-0.0004544893
0.0006456365
-2.448311e-05
-0.0004300062
0.0006280277
-0.0006525108
-0.000137552
0.0007655796
-0.002629337
0.002491785
-0.003837612
0.001208276
-0.0027127
-0.001124913
-0.001232983
-0.001479717
-0.000483934
-0.0007490488
-8.005258e-05
-0.0004038814
0.0007246524
-0.000804705
0.001957621
-0.001232969
0.001979382
-2.176147e-05
-0.00117375
0.003153133
-0.004423817
0.003250067
-0.004848678
0.0004248616
-0.003899282
-0.0009493968
-0.002726213
-0.001173069
-0.001807301
-0.0009189117
-0.0009925568
-0.0008147445
-0.0001005849
-0.000891972
0.001037105
-0.001137689
0.002360049
-0.001322945
0.003267995
-0.0009079457
0.003751502
-0.0004835072
0.004180051
-0.0004285494
0.00469259
-0.0005125385
0.004615525
7.706494e-05
0.003789646
0.0008258789
0.002973724
0.0008159216
0.002460536
0.0005131884
0.001923429
0.0005371074
0.0006871461
0.001236283
-0.002117083
0.002804229
-0.00501152
0.002894438
-0.006377634
0.001366114
-0.006696004
0.0003183703
-0.00673479
3.878582e-05
-0.006603672
-0.0001311181
-0.006295038
-0.0003086341
-0.005813149
-0.0004818889
-0.005258569
-0.0005545801
-0.004634379
-0.0006241898
-0.004047388
-0.000586991
-0.003609699
-0.0004376889
-0.003176586
-0.0004331137
-0.002676144
-0.0005004421
-0.002194229
-0.0004819147
-0.001732312
-0.0004619174
-0.00130621
-0.0004261017
-0.000835593
-0.0004706169
-0.0004463987
-0.0003891942
-0.0001241269
-0.0003222718
0.0002394613
-0.0003635882
0.0006028339
-0.0003633726
0.001128622
-0.000525788
0.001607287
-0.0004786648
0.002503114
-0.0008958271
0.003701701
-0.001198587
-0.002803186
0.006504887
-0.003073269
0.0002700829
-0.001836883
-0.001236386
-0.0007832621
-0.001053621
-0.0004768482
-0.0003064139
-0.001049831
0.0005729833
-0.00172901
0.0006791784
-0.00199061
0.0002615998
-0.002270793
0.000280183
-0.001868299
-0.0004024935
-0.0002893963
-0.001578903
0.0009124732
-0.001201869
0.0005826179
0.0003298553
-0.0002442872
0.0008269051
-0.00130428
0.001059993
-0.001909309
0.0006050289
-0.001182094
-0.0007272152
0.0001808931
-0.001362987
0.001379083
-0.00119819
0.002710433
-0.00133135
0.003836965
-0.001126532
0.004698825
-0.0008618596
0.005153507
-0.0004546817
0.005364602
-0.0002110952
0.005180745
0.0001838572
0.004584275
0.0005964696
0.003489773
0.001094502
0.001847475
0.001642298
4.637905e-05
0.001801096
-0.001069767
0.001116146
-0.001271293
0.0002015255
-0.001171018
-0.0001002751
-0.001012614
-0.000158403
-0.001867953
0.0008553389
-0.003001496
0.001133542
-0.002871024
-0.0001304719
-0.001708682
-0.001162342
-0.0006128804
-0.001095801
7.851355e-05
-0.0006913939
0.0003100508
-0.0002315373
-9.221717e-05
0.000402268
-0.0002007557
0.0001085385
0.0001648853
-0.0003656409
0.0001079258
5.695945e-05
-0.0003595588
0.0004674846
-0.0009241881
0.0005646293
-0.0006992981
-0.00022489
0.001657963
-0.002357261
0.002515448
-0.0008574856
-0.005665964
0.008181412
-0.005982298
0.0003163341
-0.005221428
-0.00076087
-0.004905409
-0.0003160191
-0.004586981
-0.0003184278
-0.004344625
-0.0002423557
-0.004121866
-0.0002227594
-0.003927803
-0.0001940625
-0.003664809
-0.0002629945
-0.003529126
-0.0001356829
-0.003412565
-0.0001165604
-0.00330483
-0.0001077358
-0.00320856
-9.627e-05
-0.003114978
-9.358138e-05
-0.003025906
-8.907183e-05
-0.002941232
-8.467426e-05
-0.002864866
-7.636576e-05
-0.002793784
-7.108192e-05
-0.002725362
-6.842294e-05
-0.002658196
-6.7166e-05
-0.00259577
-6.242552e-05
-0.002535503
-6.026664e-05
-0.002478528
-5.697508e-05
-0.002426845
-5.168283e-05
-0.002374545
-5.230033e-05
-0.00232207
-5.247542e-05
-0.002269155
-5.291484e-05
-0.002220382
-4.877309e-05
-0.002175418
-4.496366e-05
-0.002134048
-4.136999e-05
-0.002091391
-4.265747e-05
-0.002049267
-4.212387e-05
-0.002004508
-4.475876e-05
-0.001964466
-4.004196e-05
-0.001927506
-3.695963e-05
-0.001889035
-3.847131e-05
-0.001850128
-3.890717e-05
-0.00181017
-3.995763e-05
-0.001773411
-3.675977e-05
-0.001738296
-3.511419e-05
-0.00176268
2.438384e-05
-0.001739381
-2.329956e-05
-0.001712257
-2.712352e-05
-0.001684542
-2.7715e-05
-0.001659476
-2.506664e-05
-0.001633433
-2.604282e-05
-0.001609108
-2.432438e-05
-0.001585729
-2.337909e-05
-0.001563048
-2.268149e-05
-0.001536904
-2.61434e-05
-0.001510116
-2.678853e-05
-0.001485517
-2.459853e-05
-0.001462233
-2.328386e-05
-0.001440082
-2.215177e-05
-0.001413323
-2.675875e-05
-0.001382127
-3.119542e-05
-0.001350097
-3.203041e-05
-0.001318001
-3.209579e-05
-0.001280125
-3.78765e-05
-0.001240242
-3.988295e-05
-0.001194913
-4.532849e-05
-0.001143451
-5.146219e-05
-0.001085111
-5.83405e-05
-0.001017358
-6.775312e-05
-0.0009269824
-9.03751e-05
-0.0008199737
-0.0001070087
-0.0007035519
-0.0001164218
-0.0005478576
-0.0001556943
-0.0003421031
-0.0002057545
-0.0002584883
-8.36148e-05
-0.0004837242
0.0002252359
-0.0008911504
0.0004074262
-8.73234e-05
-0.0008038271
0.0008223892
-0.0009097126
0.001215871
-0.0003934815
0.001343396
-0.0001275251
0.001399613
-5.621716e-05
0.001439099
-3.948614e-05
0.001457004
-1.790542e-05
0.001451602
5.402324e-06
0.001444967
6.635664e-06
0.001455271
-1.030407e-05
0.001468071
-1.280004e-05
0.001480448
-1.237756e-05
0.001487331
-6.882359e-06
0.001494717
-7.386713e-06
0.001503482
-8.764352e-06
0.001517133
-1.365154e-05
0.001530552
-1.341876e-05
0.001540255
-9.703368e-06
0.001550612
-1.03568e-05
0.001564396
-1.378436e-05
0.001576997
-1.26008e-05
0.00158875
-1.175294e-05
0.001603993
-1.524296e-05
0.001616576
-1.258296e-05
0.001633687
-1.711138e-05
0.001655501
-2.181331e-05
0.00167174
-1.623933e-05
0.001684493
-1.275332e-05
0.001699504
-1.501053e-05
0.001716934
-1.74303e-05
0.001727968
-1.10333e-05
0.00169426
3.370766e-05
0.001716736
-2.247576e-05
0.001746882
-3.014628e-05
0.001777336
-3.045372e-05
0.00180812
-3.078481e-05
0.001841196
-3.307511e-05
0.001872141
-3.09458e-05
0.001899932
-2.779058e-05
0.001930274
-3.034233e-05
0.001965826
-3.555162e-05
0.002004848
-3.902255e-05
0.002037472
-3.26236e-05
0.002068129
-3.065675e-05
0.002102063
-3.393451e-05
0.002138914
-3.685041e-05
0.002176554
-3.764001e-05
0.0022195
-4.294673e-05
0.002264345
-4.484462e-05
0.002309135
-4.479026e-05
0.002354629
-4.549346e-05
0.002396791
-4.216248e-05
0.002448614
-5.18231e-05
0.002503959
-5.534467e-05
0.002561773
-5.781352e-05
0.002623692
-6.191938e-05
0.002687618
-6.392644e-05
0.002759521
-7.19031e-05
0.002839476
-7.995453e-05
0.002921119
-8.164278e-05
0.003010124
-8.900544e-05
0.003113467
-0.0001033428
0.003236255
-0.000122788
0.003470636
-0.0002343811
0.003646844
-0.0001762077
0.003849407
-0.0002025626
0.004079019
-0.0002296124
0.004381293
-0.0003022739
0.004681256
-0.0002999636
0.005494019
-0.0008127625
0.0001184147
-2.829828e-05
0.0009214741
-0.001697003
0.0009072585
-0.001845269
0.001424307
-0.0009105296
0.001696469
-0.0003996874
0.001880139
-0.0002398872
0.002039433
-0.0001987806
0.002172277
-0.0001507494
0.002276606
-9.892603e-05
0.002365403
-8.216156e-05
0.002456688
-0.0001015892
0.002542458
-9.857021e-05
0.002624516
-9.443503e-05
0.002698277
-8.064332e-05
0.00276912
-7.822983e-05
0.002836109
-7.575341e-05
0.002904152
-8.169447e-05
0.002969629
-7.889634e-05
0.003030929
-7.100245e-05
0.00308991
-6.933873e-05
0.003149629
-7.3503e-05
0.003206965
-6.993705e-05
0.003261856
-6.664367e-05
0.003318389
-7.177552e-05
0.003371109
-6.530285e-05
0.00342597
-7.197265e-05
0.00348292
-7.876316e-05
0.003536734
-7.005406e-05
0.003586527
-6.254565e-05
0.003637904
-6.638774e-05
0.003689238
-6.876482e-05
0.003738451
-6.024591e-05
0.003706928
6.523119e-05
0.003765834
-8.138245e-05
0.003828477
-9.278915e-05
0.003891127
-9.31039e-05
0.003953901
-9.355895e-05
0.004017729
-9.690315e-05
0.004080851
-9.406688e-05
0.004140781
-8.772062e-05
0.004202996
-9.255725e-05
0.004267059
-9.961471e-05
0.004335334
-0.0001072981
0.004398301
-9.559057e-05
0.004461212
-9.356719e-05
0.004525223
-9.794632e-05
0.004591919
-0.0001035459
0.004658566
-0.0001042872
0.004729557
-0.0001139379
0.004802502
-0.0001177896
0.004875683
-0.0001179711
0.004950889
-0.0001206997
0.005022891
-0.0001141643
0.005103297
-0.000132229
0.005184998
-0.000137046
0.005270765
-0.0001435802
0.00535872
-0.0001498744
0.0054502
-0.0001554063
0.005547073
-0.0001687763
0.005651859
-0.0001847403
0.005758131
-0.0001879153
0.00587191
-0.0002027842
0.005997472
-0.0002289052
0.006140243
-0.0002655587
0.006453346
-0.0005474838
0.006648675
-0.0003715373
0.006875372
-0.0004292592
0.007125458
-0.0004796985
0.007457174
-0.0006339899
0.007759701
-0.0006024899
0.008630517
-0.001683579
0.008054447
0.0006944849
-0.009486501
0.008568249
0.001234586
-0.008588813
-0.001658558
-0.008286654
-0.000618178
-0.007933125
-0.0006719564
-0.007667205
-0.0005082755
-0.007416835
-0.0004731293
-0.00720058
-0.0004103175
-0.00684941
-0.0006141651
-0.00668898
-0.000296113
-0.006545745
-0.0002597947
-0.006409721
-0.0002437605
-0.006284261
-0.0002217299
-0.006160726
-0.0002171159
-0.006042786
-0.0002070118
-0.005927513
-0.0001999477
-0.005820541
-0.0001833375
-0.005716151
-0.0001754724
-0.005616098
-0.000168476
-0.005516011
-0.0001672521
-0.005421196
-0.0001572413
-0.005327288
-0.0001541747
-0.005236829
-0.0001474336
-0.005150053
-0.0001384593
-0.005063347
-0.0001390064
-0.004977541
-0.0001382805
-0.004891354
-0.0001391026
-0.00480919
-0.0001309369
-0.00472846
-0.000125694
-0.004651282
-0.0001185474
-0.004571568
-0.0001223718
-0.004493963
-0.000119729
-0.004413116
-0.0001256052
-0.004336465
-0.0001166928
-0.004260393
-0.0001130319
-0.004183469
-0.0001153953
-0.004105513
-0.0001168628
-0.00402677
-0.0001187006
-0.003949961
-0.0001135691
-0.003873578
-0.0001114977
-0.003894011
4.481749e-05
-0.00382928
-8.803093e-05
-0.003763377
-9.302643e-05
-0.003695605
-9.548685e-05
-0.00363014
-9.053184e-05
-0.003562001
-9.418137e-05
-0.003494986
-9.133938e-05
-0.003426528
-9.18373e-05
-0.003357844
-9.136595e-05
-0.003285121
-9.886632e-05
-0.003211291
-0.0001006182
-0.003137374
-9.851586e-05
-0.003062203
-9.845497e-05
-0.002985933
-9.842095e-05
-0.002903836
-0.0001088561
-0.002817425
-0.0001176062
-0.002728076
-0.0001213802
-0.002636974
-0.000123197
-0.002538494
-0.0001363565
-0.002436747
-0.0001416306
-0.002327327
-0.0001547485
-0.002210457
-0.0001683315
-0.002084276
-0.0001845221
-0.001946264
-0.0002057649
-0.001783786
-0.0002528531
-0.001602017
-0.0002887777
-0.001410337
-0.0003081022
-0.001213356
-0.0003526744
-0.001068703
-0.0003504083
-0.001007475
-0.0001448422
-0.000958957
0.0001767177
0.0003699434
-0.002044739
-0.003920948
0.01247057
-0.002783669
0.001009013
-0.001254132
-0.002765923
-0.000163656
-0.002144097
0.0004275425
-0.0008976124
-0.0003562416
0.001356767
-0.002235456
0.002558393
-0.003305355
0.001331499
-0.003416739
0.0003915673
-0.002787542
-0.001031691
-0.001044102
-0.003322343
0.0005546401
-0.002800611
0.0004974682
0.0003870271
-0.001258961
0.002583335
-0.002955963
0.002756995
-0.002739188
0.0003882536
-0.001215269
-0.002251134
0.000346744
-0.002925
0.001792002
-0.002643448
0.003454832
-0.00299418
0.00492693
-0.00259863
0.006087478
-0.002022408
0.006760399
-0.001127603
0.007221628
-0.0006723237
0.007413224
-7.738769e-06
0.007367772
0.000641921
0.00684956
0.001612714
0.00545526
0.003036598
0.00275311
0.004503246
-0.0004749246
0.004344181
-0.00221687
0.001943471
-0.002760214
0.0004430686
-0.003127099
0.0002084823
-0.003751275
0.001479514
-0.003945375
0.001327642
-0.003280962
-0.0007948847
-0.001926441
-0.002516863
-0.0006338366
-0.002388406
0.0002321743
-0.001557405
0.0005099436
-0.0005093065
-6.848071e-05
0.0009806923
-0.0001369219
0.0001769797
0.0004199769
-0.0009225397
0.0002569126
0.0002200237
-0.0004411013
0.001165498
-2.871552e-05
0.0001522436
0.0009531031
-0.001206709
0.002556046
-0.003960203
0.001027006
0.0006715542
0.01777667
-0.0004723731
-0.002252551
0.004940986
-0.0008273249
0.0005269349
-0.001131987
0.0005471964
-0.00130854
0.0004578569
-0.001372393
0.0002250896
-0.001325263
-1.462922e-05
-0.001246649
-9.244969e-05
-0.001135161
-0.0001741787
-0.0008773703
-0.0004556621
-0.0004480565
-0.0007591741
-1.585443e-05
-0.0007528109
0.000243742
-0.0004615028
0.0008533253
-0.001065438
0.001336475
-0.0008460388
0.00184055
-0.0008736546
0.002373968
-0.0009356399
0.002929762
-0.0009728712
0.00344139
-0.0008781681
0.003958661
-0.0008869116
0.004464071
-0.0008621205
0.004960079
-0.0008415484
0.005432561
-0.0007928031
0.00588069
-0.0007434066
0.006305906
-0.0006978372
0.006706002
-0.0006476869
0.00707367
-0.0005831314
0.007414361
-0.0005302076
0.007728806
-0.0004783316
0.008011511
-0.0004158327
0.00827716
-0.000383572
0.008521515
-0.0003409326
0.008736685
-0.0002843335
0.00892836
-0.00018647
0.008930122
0.0001877007
0.009095941
-5.151084e-05
0.00922177
7.533699e-05
0.009279496
0.0002968363
0.009172852
0.0007352454
0.008744532
0.001422531
0.007697815
0.002424323
0.006157091
0.003056717
0.004701946
0.002100782
0.003128019
0.001143921
0.001422095
0.001053413
-0.0006412876
0.002828962
-0.002323417
0.004173914
-0.001874699
0.0007595577
0.0001304765
-0.003130088
0.001443613
-0.002792854
0.002004518
-0.001309953
0.002030914
-0.0004302777
0.002329779
-0.00110357
0.003079118
-0.001982307
0.001529865
0.001527491
-0.002903476
0.007586474
-0.005569998
0.005916589
-0.005301035
0.0001558985
-0.004207038
-0.002043394
-0.002840605
-0.002539502
-0.001774352
-0.001985165
-0.0008174636
-0.001771633
0.0001653117
-0.001874747
0.001522879
-0.002495257
0.003226768
-0.003026834
0.004712889
-0.002394066
0.005669932
-0.001440551
0.006135397
-0.0008940138
0.006297798
-0.0006749394
0.006056758
0.0003181048
0.005332444
0.001550193
0.004408564
0.001739801
0.003613334
0.001308419
0.001461328
0.002689113
-0.002934534
0.005632145
-0.007391258
0.007260953
-0.00936429
0.004867469
-0.009417759
0.001419583
-0.009167501
6.811254e-05
-0.008982411
-0.0001463042
-0.008632452
-0.0004810772
-0.008107458
-0.000833628
-0.007420916
-0.001168432
-0.006679374
-0.001296121
-0.005889035
-0.001414529
-0.005156672
-0.001319355
-0.0045701
-0.001024261
-0.003970063
-0.001033151
-0.003309731
-0.001160774
-0.002685612
-0.001106034
-0.002092208
-0.001055321
-0.001546695
-0.0009716153
-0.0009787367
-0.001038575
-0.000511487
-0.0008564439
-8.61241e-05
-0.0007476348
0.0003892863
-0.0008389986
0.0008979788
-0.0008720651
0.001509379
-0.001137188
0.002266729
-0.001236015
0.003118868
-0.001747966
-0.002000667
-0.0006820651
0.01629024
-0.002242385
0.0008139674
-0.0002596086
-0.004347991
-0.0009103341
0.001424663
-0.001854129
0.002194798
-0.0008522439
-0.001577772
-0.0002362624
-0.001090948
-0.0001514968
-6.42382e-05
-0.0003540153
0.0003596386
-0.0004292488
4.531949e-05
-0.0003827454
-0.0001035633
-0.0003227677
-5.623037e-05
-0.0001238653
-0.0002848091
0.0001450291
-0.000439595
0.0004276228
-0.0004683673
0.0005126736
-4.9161e-05
-1.169697e-05
0.0008879309
-0.0005199584
0.0007625252
-0.0003586947
-0.0002783709
-6.039238e-05
-0.0004945984
0.0001060059
-0.0002613597
0.0001938469
-0.0001365415
0.0002884623
-0.00014791
0.0003659658
-0.0001140895
0.000428526
-8.577609e-05
0.0004833935
-7.132146e-05
0.0005438028
-8.023959e-05
0.000624321
-0.0001116076
0.0007075724
-0.0001220328
0.0007860816
-0.000121026
0.00087238
-0.0001432945
0.0009669552
-0.0001595861
0.001067772
-0.0001659132
0.001169661
-0.0001644911
0.001291495
-0.0002058425
0.001443337
-0.0002625256
0.001611632
-0.0002829582
0.001798884
-0.0003058869
0.001987746
-0.0002990236
0.002163072
-0.0002688758
0.002316344
-0.0002256588
0.002453891
-0.0001930192
0.002583166
-0.0001736269
0.002695535
-0.000146156
0.002779148
-0.0001205782
0.002798383
-6.795818e-05
0.002729399
2.67786e-05
0.002685207
-6.561509e-05
0.002693801
-0.0002659982
0.0004126112
0.001231638
-0.01018102
0.02523961
-0.002464489
0.004510095
-0.001879047
-0.004933433
-0.002217462
0.001763078
-0.002556455
0.00253379
-0.00134607
-0.002788157
-0.0005187387
-0.001918279
-0.0002488173
-0.0003341596
-0.0004275317
0.000538353
-0.000612527
0.0002303148
-0.0005638502
-0.00015224
-0.0004358824
-0.0001841982
-0.0001838532
-0.0005368382
0.000114076
-0.0007375242
0.0004288595
-0.0007831508
0.0006478169
-0.0002681184
0.0001767293
0.001359019
-0.0004552901
0.001394545
-0.00040475
-0.000328911
-0.0001074458
-0.0007919026
9.236107e-05
-0.0004611666
0.0001940024
-0.0002381828
0.0003116194
-0.0002655271
0.0004071662
-0.0002096363
0.0004811415
-0.0001597514
0.000550986
-0.000141166
0.0006337738
-0.0001630274
0.0007456348
-0.0002234686
0.0008651875
-0.0002415855
0.0009740184
-0.0002298568
0.001082816
-0.0002520923
0.001195033
-0.0002718026
0.001315382
-0.0002862626
0.001439533
-0.0002886419
0.001587281
-0.0003535906
0.001771202
-0.0004464463
0.001979494
-0.0004912507
0.002217246
-0.0005436389
0.002463545
-0.0005453217
0.002701077
-0.0005064083
0.00291981
-0.0004443916
0.003125867
-0.0003990768
0.003327973
-0.0003757324
0.003523376
-0.0003415595
0.003714675
-0.0003118769
0.003870775
-0.0002240581
0.003942347
-4.479381e-05
0.00395695
-8.021802e-05
0.003817037
-0.000126085
0.002903836
0.001325812
-0.0001208387
0.007965661
-0.0009802284
0.001386325
-0.001322778
0.0008897457
-0.001585551
0.0007206304
-0.001689057
0.0003285956
-0.001656636
-4.705094e-05
-0.001585473
-0.0001636124
-0.001462211
-0.0002974409
-0.001162602
-0.0007552705
-0.0006337988
-0.001287978
-8.580616e-05
-0.001300804
0.0002326702
-0.0007799791
0.0009660438
-0.001798811
0.001575251
-0.001455246
0.002194846
-0.001493249
0.00284481
-0.001585604
0.003525468
-0.001653529
0.004152719
-0.001505418
0.004784463
-0.001518656
0.0053996
-0.001477258
0.00600412
-0.001446068
0.006579835
-0.001368518
0.007125623
-0.001289194
0.007643217
-0.001215431
0.008130918
-0.001135388
0.008579686
-0.001031898
0.00899652
-0.0009470421
0.009382712
-0.0008645236
0.009731056
-0.0007641765
0.01006032
-0.0007128383
0.01036584
-0.0006464522
0.01064037
-0.0005588647
0.01088225
-0.0004283459
0.01089024
0.0001797133
0.01109688
-0.0002581504
0.01127897
-0.0001067619
0.01145431
0.000121502
0.01162168
0.0005678702
0.01180619
0.001238023
0.01185873
0.002371783
0.01154302
0.00337243
0.01080468
0.002839125
0.009427511
0.002521086
0.006205445
0.004275479
0.001590061
0.007444347
-2.432993e-05
0.005788305
0.002015138
-0.001279911
0.004108495
-0.005223445
0.005627694
-0.004312053
0.006149121
-0.00183138
0.005908645
-0.000189802
0.005192967
-0.0003878923
0.004256971
-0.001046312
0.001032561
0.004751902
-0.003286521
0.01190556
-0.005459043
0.008089111
-0.005181123
-0.0001220211
-0.003844988
-0.003379529
-0.002277116
-0.004107374
-0.001162346
-0.003099935
-0.0002211702
-0.002712809
0.0007305734
-0.002826491
0.00210128
-0.003865964
0.003905445
-0.004830998
0.005580642
-0.004069264
0.006647657
-0.002507566
0.006985832
-0.001232188
0.006961922
-0.0006510292
0.006519117
0.0007609094
0.0056893
0.00238001
0.004808863
0.002620238
0.002619713
0.003497569
-0.002575549
0.007884375
-0.008324889
0.01138148
-0.01115891
0.01009497
-0.01131866
0.005027214
-0.01100709
0.001108016
-0.01087551
-6.346332e-05
-0.01066631
-0.0003555093
-0.01023222
-0.0009151665
-0.009583039
-0.001482807
-0.008734186
-0.002017284
-0.007824308
-0.002205999
-0.006863865
-0.002374972
-0.005991593
-0.002191627
-0.005294744
-0.00172111
-0.004556581
-0.001771314
-0.003735544
-0.00198181
-0.002964673
-0.001876905
-0.002228714
-0.001791279
-0.001545374
-0.001654955
-0.0008442076
-0.001739742
-0.0002859625
-0.001414689
0.0002437933
-0.001277391
0.0008265283
-0.001421734
0.001482296
-0.001527833
0.00223968
-0.001894572
0.003156141
-0.002152476
0.004271062
-0.002862887
0.004798623
-0.002528227
-0.001112773
0.01838197
-0.002648012
0.002544253
-0.0008601183
-0.004553817
0.0005534709
-0.003557686
0.00119958
-0.001543721
0.0005807912
0.001975556
-0.00174056
0.004879744
-0.003994322
0.00358526
-0.004553465
0.000950711
-0.003939792
-0.001645365
-0.002080942
-0.005181192
-0.0002629133
-0.00461864
-0.0003499536
0.0004740674
-0.002654482
0.004887864
-0.004080711
0.004183223
-0.003058949
-0.0006335084
-0.001247014
-0.004063069
0.000519686
-0.004691701
0.002319161
-0.004442923
0.004316499
-0.004991517
0.006109573
-0.004391704
0.007538973
-0.003451807
0.008379342
-0.001967973
0.008945939
-0.00123892
0.009113731
-0.0001755308
0.00904671
0.0007089416
0.008683541
0.001975883
0.007849323
0.003870816
0.005796621
0.006555947
0.001830886
0.008309916
-0.001957289
0.005731647
-0.003752997
0.002238777
-0.004248951
0.0007044364
-0.004426049
0.001656612
-0.004270413
0.001172006
-0.003543035
-0.001522262
-0.001946701
-0.004113197
-0.0004610367
-0.00387407
0.000421027
-0.002439469
0.0005791214
-0.0006674009
1.138483e-05
0.001548429
0.0001110868
7.727777e-05
0.0007006501
-0.001512103
0.0006399934
0.0002806804
0.0003529674
0.001452524
0.0007535318
-0.0002483209
0.00180016
-0.002253336
0.002846205
-0.005006249
-0.0009445143
0.004462274
-0.01086005
0.02769221
-0.01174081
0.002115342
-0.01083233
-0.002567041
-0.01044628
-0.001004227
-0.0100535
-0.00106473
-0.009756588
-0.0008051915
-0.009480542
-0.0007491757
-0.009247389
-0.0006434708
-0.00884247
-0.001019084
-0.008667126
-0.0004714568
-0.008507748
-0.000419173
-0.00835577
-0.0003957382
-0.008214779
-0.0003627203
-0.008075156
-0.0003567396
-0.0079417
-0.0003404677
-0.00781018
-0.0003314676
-0.007687248
-0.0003062692
-0.007565893
-0.0002968273
-0.007449353
-0.0002850163
-0.007331978
-0.0002846275
-0.007220221
-0.0002689978
-0.007108661
-0.0002657347
-0.007000388
-0.0002557066
-0.006895536
-0.0002433114
-0.0067905
-0.0002440426
-0.006686745
-0.000242035
-0.006582195
-0.0002436529
-0.006481734
-0.0002313979
-0.006381569
-0.0002258593
-0.006285048
-0.0002150675
-0.006184901
-0.0002225193
-0.00608767
-0.0002169602
-0.005986201
-0.0002270739
-0.005889084
-0.00021381
-0.005791517
-0.0002105993
-0.005692824
-0.0002140881
-0.005592856
-0.0002168309
-0.00549159
-0.0002199663
-0.005391296
-0.000213863
-0.005289327
-0.0002134665
-0.005310149
6.563923e-05
-0.005219439
-0.0001787405
-0.00513279
-0.000179676
-0.005043174
-0.000185103
-0.00495651
-0.0001771952
-0.004866323
-0.0001843685
-0.004777664
-0.0001799985
-0.00468698
-0.0001825215
-0.004596343
-0.0001820023
-0.004501351
-0.0001938586
-0.004405694
-0.0001962759
-0.00431013
-0.0001940792
-0.004213109
-0.0001954764
-0.004115188
-0.000196342
-0.004011369
-0.0002126751
-0.003903891
-0.0002250836
-0.00379392
-0.0002313509
-0.003682931
-0.000234186
-0.003564238
-0.0002550503
-0.003443701
-0.0002621669
-0.003316236
-0.000282214
-0.003183414
-0.0003011531
-0.003043312
-0.0003246248
-0.00289474
-0.0003543364
-0.002726582
-0.0004210113
-0.002548075
-0.0004672842
-0.00236891
-0.0004872674
-0.002190467
-0.0005311176
-0.002037187
-0.0005036883
-0.001848029
-0.0003340001
-0.001539179
-0.0001321324
-0.001125651
-4.358526e-05
1.605186e-05
-0.002838705
0.001028818
-0.002858035
0.001622514
-0.001504225
0.001963733
-0.0007409068
0.002193285
-0.0004694391
0.002397808
-0.0004033036
0.002575965
-0.0003289061
0.002721219
-0.0002441801
0.002849019
-0.0002099618
0.00298322
-0.0002357903
0.00311055
-0.0002259001
0.003234201
-0.0002180857
0.003346492
-0.0001929345
0.003454728
-0.0001864657
0.00355704
-0.0001780657
0.003659866
-0.0001845204
0.003759174
-0.0001782048
0.003852816
-0.0001646444
0.003943153
-0.0001596757
0.004033718
-0.0001640679
0.004121116
-0.0001573346
0.004204908
-0.0001504358
0.004290547
-0.0001574144
0.00437066
-0.0001454161
0.004452468
-0.0001537808
0.004536133
-0.0001624277
0.0046164
-0.0001503213
0.004692128
-0.0001382739
0.00476948
-0.0001437401
0.004845308
-0.0001445928
0.004925706
-0.0001406438
0.004905268
8.566918e-05
0.004992226
-0.0001683403
0.005080615
-0.0001811782
0.005167115
-0.0001796039
0.005253123
-0.0001795668
0.005339715
-0.0001834953
0.005425735
-0.0001800864
0.005507994
-0.0001699802
0.005592296
-0.0001768593
0.005677037
-0.000184355
0.005766537
-0.0001967987
0.00585027
-0.0001793237
0.005934402
-0.0001776985
0.006018906
-0.0001824505
0.006105945
-0.0001905851
0.006192127
-0.0001904695
0.006282456
-0.0002042663
0.006374444
-0.0002097776
0.006466402
-0.0002099296
0.00656111
-0.0002154072
0.006651524
-0.000204579
0.006750707
-0.000231412
0.00684982
-0.0002361587
0.006953314
-0.0002470737
0.007058414
-0.000254975
0.007166883
-0.000263875
0.007280085
-0.0002819784
0.007401203
-0.0003058587
0.007523337
-0.0003100484
0.007652769
-0.000332217
0.007794411
-0.0003705472
0.007950243
-0.0004213904
0.008309782
-0.0009070224
0.008519746
-0.0005815017
0.008768234
-0.0006777471
0.009045869
-0.0007573338
0.009415195
-0.001003315
0.009796525
-0.0009838198
0.01066489
-0.002551948
0.001178362
-4.000798e-06
0.001205522
-0.004040227
0.001043734
-0.00390577
0.001705755
-0.002166246
0.002125989
-0.001161141
0.002421789
-0.000765239
0.002689784
-0.0006712986
0.002927714
-0.0005668364
0.00312611
-0.0004425757
0.003300693
-0.0003845445
0.003479776
-0.0004148736
0.003648338
-0.000394462
0.003810995
-0.0003807432
0.003958744
-0.0003406834
0.004099766
-0.0003274879
0.004232486
-0.0003107854
0.004364111
-0.0003161453
0.004491147
-0.0003052407
0.004610233
-0.0002837302
0.004725166
-0.0002746089
0.00483944
-0.0002783422
0.004949669
-0.0002675629
0.00505522
-0.0002559871
0.005162878
-0.0002650722
0.005263394
-0.0002459322
0.005365754
-0.0002561406
0.005470427
-0.0002671014
0.005570339
-0.0002502326
0.005665615
-0.00023355
0.005762204
-0.0002403294
0.005856916
-0.000239305
0.005958161
-0.000241889
0.005939612
0.0001042184
0.006045552
-0.0002742799
0.006155381
-0.0002910077
0.006261453
-0.0002856754
0.006367031
-0.0002851448
0.006473327
-0.0002897917
0.006578604
-0.0002853633
0.006679528
-0.000270904
0.006782555
-0.0002798866
0.006886094
-0.000287894
0.006995068
-0.0003057725
0.007097111
-0.0002813671
0.007199644
-0.000280231
0.007302774
-0.0002855802
0.007408427
-0.000296239
0.007512977
-0.0002950191
0.007622526
-0.0003138154
0.00773366
-0.0003209114
0.007844845
-0.000321115
0.00795939
-0.0003299518
0.00806825
-0.000313439
0.008188191
-0.0003513531
0.008307072
-0.0003550399
0.008430965
-0.0003709664
0.008557057
-0.0003810673
0.00868606
-0.000392878
0.008821373
-0.000417291
0.008965193
-0.0004496783
0.009109863
-0.0004547191
0.009263095
-0.0004854483
0.009430777
-0.0005382291
0.009815385
-0.0008059992
0.01004194
-0.001133581
0.01028749
-0.0008270487
0.01058157
-0.0009718296
0.0109198
-0.001095563
0.01135852
-0.001442035
0.0118863
-0.0015116
0.01270332
-0.00336897
0.01252385
0.001357832
-0.01404703
0.01342817
0.002734202
-0.01319949
-0.003414586
-0.01266798
-0.001535736
-0.0122068
-0.00152591
-0.01184986
-0.001162135
-0.01152533
-0.0010737
-0.01125526
-0.0009135409
-0.01100079
-0.001273554
-0.01057083
-0.0009014136
-0.01038611
-0.0006038926
-0.01020976
-0.0005720954
-0.01004652
-0.0005259573
-0.009884666
-0.0005185948
-0.009729817
-0.0004953164
-0.009577168
-0.0004841168
-0.009434081
-0.0004493557
-0.009292989
-0.00043792
-0.009157266
-0.0004207392
-0.009020389
-0.000421504
-0.008889972
-0.0003994147
-0.008759856
-0.0003958511
-0.008633011
-0.0003825517
-0.008510511
-0.0003658112
-0.008387558
-0.000366996
-0.008266216