/*--------------------------------*- C++ -*----------------------------------*\
| =========                 |                                                 |
| \\      /  F ield         | OpenFOAM: The Open Source CFD Toolbox           |
|  \\    /   O peration     | Version:  2406                                  |
|   \\  /    A nd           | Website:  www.openfoam.com                      |
|    \\/     M anipulation  |                                                 |
\*---------------------------------------------------------------------------*/
FoamFile
{
    version     2.0;
    format      ascii;
    arch        "LSB;label=32;scalar=64";
    class       volScalarField;
    location    "2";
    object      p;
}
// * * * * * * * * * * * * * * * * * * * * * * * * * * * * * * * * * * * * * //

dimensions      [0 2 -2 0 0 0 0];

internalField   nonuniform List<scalar> 
217010
(
-173.1001
-107.1232
-111.3259
-112.7413
-113.5063
-110.3949
-108.1701
-105.3034
-106.8437
-107.8216
-107.8746
-106.7438
-106.251
-106.014
-106.0472
-105.7082
-104.5078
-101.9034
-98.50499
-100.2136
-109.3872
-124.6706
-130.2029
-131.1349
-127.375
-126.1284
-128.2927
-119.4455
-117.11
-129.9761
-148.7655
-163.7409
-168.7629
-166.3189
-158.3152
-146.3775
-133.2444
-117.7619
-101.4512
-87.32506
-74.50298
-60.90147
-48.27454
-37.75586
-29.69611
-23.30375
-19.87171
-18.75275
-20.98628
-21.0531
-44.10797
-33.79167
-35.93795
-36.4491
-37.19954
-38.0791
-39.97693
-43.39753
-46.90474
-49.39283
-50.65824
-51.41617
-52.08253
-53.28716
-55.23176
-55.96698
-56.76015
-58.00709
-60.14183
-64.89642
-69.84714
-76.00958
-88.59881
-110.6641
-134.2067
-135.3836
-102.8496
-76.59176
-63.13107
-61.47101
-71.74397
-85.16701
-115.2893
-163.3012
-182.8347
-147.569
-108.2143
-105.5526
-116.2274
-124.2696
-130.9211
-135.5389
-137.841
-139.5794
-141.5762
-143.5598
-145.1471
-146.3112
-147.1769
-147.702
-147.8549
-147.5692
-146.8084
-145.5322
-143.7397
-141.6221
-139.1405
-136.1824
-132.8464
-129.2774
-125.5846
-121.6981
-117.8341
-113.8556
-109.6397
-105.3898
-101.2872
-97.08782
-92.97439
-88.91366
-84.87803
-80.92565
-77.07233
-73.3661
-69.79507
-66.32163
-62.92343
-59.66683
-56.61099
-53.73497
-51.06563
-48.58083
-46.31525
-44.38474
-42.79366
-41.54137
-40.81958
-40.61345
-40.84515
-41.65917
-43.07834
-44.80462
-47.05525
-49.49333
-51.91863
-53.72554
-54.37414
-53.8914
-52.24343
-54.8602
-46.79244
-54.64578
-60.9087
-71.69991
-83.93252
-98.01442
-113.0925
-129.0627
-145.1094
-159.6901
-170.6667
-176.293
-175.4568
-168.212
-153.7696
-132.0516
-108.4645
-94.89189
-96.33294
-102.5611
-102.7624
-97.96559
-98.06402
-105.626
-97.79534
-87.56822
-77.77404
-68.96913
-76.88449
-91.26354
-108.5064
-126.1223
-141.8838
-152.1615
-153.9817
-145.8392
-132.2021
-117.9689
-116.7792
-129.2589
-127.3167
-111.6153
-103.1309
-101.5649
-101.2304
-102.1205
-102.8585
-104.384
-98.41175
-160.8428
-80.73175
-70.91341
-58.69876
-51.54767
-45.37776
-40.26802
-35.84484
-31.82754
-28.32902
-25.14258
-22.24209
-19.58493
-17.07744
-14.7063
-12.48371
-10.42248
-8.490823
-6.632602
-4.854691
-3.154455
-1.527271
0.01766751
1.482957
2.922573
4.329922
5.706318
7.025473
8.274381
9.481587
10.67122
11.84678
13.00012
14.09998
15.16899
16.22974
17.27023
18.30005
19.31716
20.33692
21.31415
22.31041
23.26054
24.20357
25.13286
26.05794
26.96636
27.85902
28.75423
29.66511
30.57326
31.46113
32.33426
33.2058
34.10298
35.01302
35.91198
36.81426
37.72702
38.6442
39.57526
40.50738
41.43561
42.40794
43.47277
44.56311
45.62054
46.6893
47.86095
49.24327
50.76308
52.52769
54.36643
52.40574
50.98989
49.88198
48.87347
47.86946
46.83807
45.85222
44.97065
44.13608
43.25159
42.342
41.45609
40.6138
39.7902
38.96309
38.12283
37.28184
36.46421
35.65272
34.8239
33.99239
33.16954
32.33108
31.49645
30.64344
29.75543
28.87964
28.02227
27.15612
26.26228
25.32253
24.41483
23.4657
22.49042
21.51068
20.52169
19.49111
18.44023
17.38452
16.30101
15.15641
13.9548
12.74646
11.53988
10.28247
8.958258
7.587066
6.148145
4.64517
3.091924
1.474413
-0.1751182
-1.942844
-3.837053
-5.814832
-7.926725
-10.1499
-12.55765
-15.17601
-17.97501
-20.99564
-24.38186
-28.16712
-32.48553
-37.29972
-42.90153
-49.82251
-57.89119
-71.63716
-83.2177
54.33602
52.65485
51.16285
50.01742
48.99817
47.98918
46.952
45.95517
45.06218
44.2224
43.33663
42.42389
41.53204
40.68388
39.85624
39.02633
38.18345
37.33898
36.51795
35.70374
34.87268
34.03873
33.21356
32.37281
31.53648
30.68167
29.79199
28.91376
28.05393
27.18604
26.291
25.34887
24.44079
23.48917
22.51202
21.53073
20.54033
19.50805
18.45576
17.39852
16.31367
15.16719
13.96367
12.75374
11.54582
10.28635
8.960377
7.587626
6.146443
4.640799
3.084725
1.464223
-0.1872635
-1.959931
-3.858665
-5.840662
-7.958705
-10.18689
-12.60327
-15.23088
-18.0384
-21.07011
-24.47093
-28.27149
-32.6233
-37.46529
-43.11097
-50.0843
-58.31733
-72.0297
-85.3297
-82.61387
-71.27193
-59.08398
-51.7843
-45.5711
-40.42114
-35.97397
-31.92421
-28.41233
-25.2149
-22.30259
-19.63725
-17.12254
-14.74422
-12.51466
-10.4475
-8.512082
-6.649931
-4.86812
-3.164477
-1.534279
0.01391074
1.481112
2.922515
4.331755
5.710143
7.031512
8.282012
9.490805
10.68213
11.85944
13.01455
14.11612
15.18652
16.24905
17.29114
18.32285
19.34201
20.36449
21.34218
22.34094
23.29274
24.23786
25.16919
26.09615
27.00654
27.90147
28.79946
29.71299
30.6234
31.51321
32.38898
33.26417
34.16513
35.07862
35.98083
36.88699
37.80387
38.72564
39.66092
40.5973
41.53259
42.51568
43.58997
44.68532
45.74794
46.83026
48.02605
49.43744
51.01496
52.6328
-46.76212
-53.87649
-59.94468
-70.4601
-82.57631
-96.5867
-111.6334
-127.6277
-143.7838
-158.5905
-169.9071
-175.9674
-175.6087
-168.7679
-154.805
-133.3256
-109.4597
-95.15675
-96.17239
-102.487
-102.9109
-98.0838
-98.07454
-105.6331
-97.98088
-87.81904
-77.98847
-69.00696
-76.88708
-91.22678
-108.4931
-126.133
-141.9115
-152.2382
-154.1363
-145.986
-132.1894
-117.8541
-116.7663
-129.3601
-127.2878
-111.4856
-103.0575
-101.5561
-101.2498
-102.1646
-102.9211
-104.2987
-99.92162
-149.4799
-42.18756
-34.36457
-35.83116
-36.37661
-37.10273
-37.93124
-39.71332
-43.04914
-46.59619
-49.20668
-50.57609
-51.37591
-52.01688
-53.1436
-55.12568
-55.92215
-56.69683
-57.90713
-59.95543
-64.63785
-69.54271
-75.49907
-87.90008
-109.7636
-133.7446
-136.2595
-104.2911
-77.62439
-63.56681
-61.5744
-71.55952
-84.62188
-114.4306
-162.7749
-183.5239
-148.5565
-108.619
-105.5503
-116.2263
-124.1826
-130.844
-135.5139
-137.8182
-139.563
-141.5699
-143.5663
-145.1662
-146.3374
-147.208
-147.7323
-147.8794
-147.5857
-146.8164
-145.5347
-143.7345
-141.6026
-139.1096
-136.1423
-132.7974
-129.2184
-125.5181
-121.6227
-117.7496
-113.7613
-109.5357
-105.2841
-101.1568
-96.95677
-92.83722
-88.76902
-84.72658
-80.76869
-76.91112
-73.20138
-69.62632
-66.14854
-62.74813
-59.49251
-56.43962
-53.56784
-50.90364
-48.4263
-46.17385
-44.26083
-42.69072
-41.46783
-40.78235
-40.61306
-40.88007
-41.74987
-43.21774
-44.99007
-47.2943
-49.76153
-52.18001
-53.91019
-54.41319
-53.74847
-52.35537
-53.86914
-159.9265
-108.9302
-111.4371
-112.7645
-113.6139
-110.5158
-108.2571
-105.3388
-106.8428
-107.8214
-107.8986
-106.7573
-106.2554
-106.0147
-106.0489
-105.7152
-104.5176
-101.8982
-98.51121
-100.2638
-109.5669
-124.9872
-130.4186
-131.1602
-127.4435
-126.2796
-128.3256
-119.2152
-117.2107
-130.6037
-149.6004
-164.2954
-168.8769
-165.9908
-157.7291
-145.6042
-132.3229
-116.7295
-100.4078
-86.31062
-73.45795
-59.83704
-47.30868
-36.94179
-29.02877
-22.85764
-19.67602
-18.8293
-21.11419
-22.22636
-146.1767
-109.6068
-111.6415
-112.7212
-113.7153
-110.7107
-108.3903
-105.4136
-106.8751
-107.8712
-107.9739
-106.7816
-106.2588
-106.0162
-106.0537
-105.7325
-104.5444
-101.9114
-98.52334
-100.3605
-109.852
-125.4474
-130.9519
-131.2627
-127.5128
-126.5673
-128.4047
-118.9627
-117.369
-131.8524
-151.4243
-165.3715
-169.2782
-166.2053
-157.8054
-145.4505
-132.1008
-116.3994
-99.98214
-85.89088
-73.072
-59.36294
-46.83681
-36.50628
-28.69067
-22.6092
-19.57738
-18.93473
-21.28826
-22.58342
-40.7584
-34.58991
-35.78801
-36.35743
-37.07207
-37.8543
-39.5638
-42.89513
-46.49911
-49.18553
-50.59293
-51.40367
-52.02976
-53.12214
-55.09903
-55.94336
-56.69659
-57.85371
-59.82451
-64.52071
-69.33063
-75.1129
-87.36101
-109.455
-134.3287
-138.4703
-107.0869
-78.81711
-64.15961
-62.01864
-71.63263
-84.20576
-113.8089
-163.2516
-185.4125
-150.0349
-107.9476
-105.2479
-116.055
-124.0845
-130.7953
-135.477
-137.8469
-139.6417
-141.6582
-143.6589
-145.2731
-146.4464
-147.3103
-147.8155
-147.9404
-147.6297
-146.8459
-145.5651
-143.7575
-141.6224
-139.1291
-136.1551
-132.8035
-129.2144
-125.5153
-121.6112
-117.7347
-113.7455
-109.5086
-105.2484
-101.1534
-96.9234
-92.79861
-88.72999
-84.68232
-80.72178
-76.86145
-73.15156
-69.57602
-66.09711
-62.69317
-59.43407
-56.38251
-53.50958
-50.84611
-48.37019
-46.11826
-44.21054
-42.65119
-41.43778
-40.77066
-40.62586
-40.92023
-41.82568
-43.31535
-45.10898
-47.43138
-49.89234
-52.26824
-53.92097
-54.39095
-53.66553
-52.31258
-53.34834
-46.76185
-53.44363
-59.46731
-69.86965
-81.90762
-95.96553
-111.0206
-127.0834
-143.3757
-158.4143
-170.0168
-176.3582
-176.1114
-169.5354
-156.0973
-135.0813
-110.8448
-95.58017
-96.01232
-102.3943
-103.0904
-98.34243
-98.22086
-105.8688
-98.35041
-88.3184
-78.30868
-69.11857
-76.98986
-91.29769
-108.6264
-126.3026
-142.0842
-152.4375
-154.4351
-146.4256
-132.5833
-117.8846
-116.7738
-129.6356
-127.5369
-111.4504
-103.0184
-101.564
-101.2899
-102.228
-102.9305
-104.2014
-100.4684
-137.2643
-82.48708
-71.50788
-59.26043
-51.9046
-45.66318
-40.49176
-36.02735
-31.98173
-28.44555
-25.24583
-22.3277
-19.65954
-17.14303
-14.7612
-12.52857
-10.4579
-8.522836
-6.658918
-4.875465
-3.170193
-1.539146
0.01152208
1.478329
2.92074
4.331211
5.71092
7.034345
8.284795
9.493439
10.68515
11.8631
13.01999
14.12221
15.1914
16.2549
17.29718
18.33074
19.35052
20.37102
21.35257
22.34756
23.30103
24.24725
25.17845
26.10621
27.01707
27.91169
28.80917
29.72436
30.63671
31.52636
32.40209
33.27607
34.17817
35.09442
35.9967
36.90234
37.82139
38.7432
39.67928
40.61683
41.55279
42.53574
43.61691
44.71701
45.77746
46.8623
48.06113
49.49406
51.10839
52.65658
54.25502
52.76063
51.22229
50.05019
49.02857
48.02187
46.97909
45.97526
45.08188
44.24555
43.35768
42.44289
41.54791
40.69921
39.87136
39.04196
38.19757
37.351
36.53053
35.7166
34.88407
34.04978
33.22512
32.38249
31.54809
30.69279
29.79981
28.92153
28.06226
27.19449
26.29656
25.35708
24.44751
23.49833
22.51886
21.53709
20.5467
19.51232
18.4598
17.4032
16.31892
15.17065
13.96504
12.75488
11.54801
10.2871
8.960373
7.58728
6.143908
4.636763
3.079177
1.457312
-0.1927249
-1.968945
-3.8698
-5.852068
-7.974318
-10.20218
-12.62419
-15.25561
-18.06549
-21.10123
-24.50847
-28.33423
-32.68076
-37.54272
-43.2111
-50.22218
-58.51546
-72.28694
-85.09386
54.1221
52.90928
51.39386
50.18799
49.15638
48.1495
47.10156
46.09051
45.18882
44.34595
43.45409
42.53691
41.63741
40.78309
39.95058
39.11707
38.26955
37.41904
36.59594
35.77794
34.94189
34.10531
33.27821
32.43206
31.59698
30.7388
29.84166
28.96315
28.10141
27.23178
26.33089
25.39655
24.47466
23.52801
22.54463
21.56183
20.57059
19.53229
18.47899
17.42159
16.33659
15.18437
13.9755
12.76456
11.55822
10.29374
8.965282
7.591181
6.143805
4.634363
3.074203
1.449027
-0.1993807
-1.983583
-3.889193
-5.873076
-8.004344
-10.23316
-12.66698
-15.30753
-18.12385
-21.16908
-24.59773
-28.43379
-32.7991
-37.69474
-43.40518
-50.45813
-58.88802
-72.51215
-85.26665
-82.66507
-71.71796
-59.5971
-52.11449
-45.8459
-40.63267
-36.13936
-32.07479
-28.52744
-25.3144
-22.38329
-19.70856
-17.18583
-14.79593
-12.55647
-10.47798
-8.541654
-6.673138
-4.88577
-3.176864
-1.543714
0.01188225
1.477975
2.922456
4.335408
5.717502
7.045184
8.296755
9.506258
10.6989
11.87844
13.03884
14.14395
15.21246
16.27854
17.32202
18.35952
19.38177
20.39969
21.39384
22.38478
23.34026
24.28916
25.22301
26.15255
27.0667
27.96397
28.86447
29.78223
30.69789
31.59016
32.46967
33.34777
34.25284
35.17415
36.08032
36.99057
37.91387
38.84093
39.7811
40.72445
41.66903
42.66045
43.74791
44.85381
45.91985
47.0174
48.23198
49.6814
51.27845
52.66506
-46.80117
-52.85868
-58.64658
-68.77267
-80.64415
-94.63841
-109.6342
-125.741
-142.1474
-157.3885
-169.2527
-175.8831
-176.1851
-170.296
-157.5192
-137.3107
-113.2248
-96.57229
-96.00216
-102.43
-103.511
-98.86075
-98.41631
-105.9933
-98.89027
-89.18422
-78.8357
-69.33834
-77.23149
-91.51974
-108.9581
-126.6779
-142.4245
-152.7941
-154.9053
-147.109
-133.4825
-118.3211
-117.0155
-130.0759
-127.8552
-111.4469
-102.9777
-101.6051
-101.3635
-102.3286
-102.9569
-104.0429
-101.938
-128.5745
-39.7767
-34.9501
-35.71838
-36.28596
-36.98952
-37.72349
-39.31745
-42.56184
-46.19757
-48.98159
-50.47899
-51.40957
-52.10398
-53.08727
-54.96091
-55.94206
-56.70094
-57.7574
-59.60627
-64.29269
-69.01638
-74.32728
-86.52425
-109.0331
-134.8308
-141.5654
-111.577
-80.33162
-64.38862
-62.43727
-71.58811
-83.59013
-112.882
-163.2001
-187.4576
-151.8453
-107.6285
-104.6667
-115.731
-123.9507
-130.7399
-135.4117
-137.9118
-139.8158
-141.8294
-143.8041
-145.4123
-146.5686
-147.4162
-147.8971
-147.9974
-147.669
-146.8517
-145.5643
-143.7449
-141.5979
-139.1015
-136.1179
-132.7562
-129.1483
-125.45
-121.5311
-117.6439
-113.6519
-109.4034
-105.13
-100.9992
-96.78361
-92.64986
-88.5756
-84.51816
-80.55251
-76.68691
-72.97343
-69.3949
-65.91609
-62.51305
-59.254
-56.20936
-53.34243
-50.68655
-48.22175
-45.98174
-44.0917
-42.5601
-41.37403
-40.74303
-40.64191
-40.97625
-41.92955
-43.46655
-45.30618
-47.68874
-50.17357
-52.55827
-54.17964
-54.44701
-53.53269
-52.40034
-52.99779
-136.8609
-111.351
-111.6603
-112.445
-113.7974
-111.0407
-108.6234
-105.5514
-106.9203
-107.9429
-108.1076
-106.8056
-106.2538
-106.0167
-106.0659
-105.7726
-104.6018
-101.9551
-98.55234
-100.537
-110.335
-126.2091
-131.8111
-131.418
-127.2172
-127.0062
-128.666
-118.7341
-117.9353
-134.1934
-153.8184
-166.5063
-169.3668
-165.764
-157.2363
-144.65
-131.1763
-115.417
-98.95602
-84.86279
-72.08081
-58.38754
-45.98917
-35.78813
-28.13597
-22.2676
-19.47393
-19.10731
-21.54338
-23.70574
-130.3953
-113.0347
-111.4478
-111.8084
-113.8254
-111.5408
-109.0019
-105.797
-106.9707
-108.0259
-108.2689
-106.8184
-106.2172
-106.0124
-106.0936
-105.8558
-104.7277
-102.0528
-98.62142
-100.8768
-111.1169
-127.3761
-132.9633
-131.4582
-126.2718
-127.659
-129.2236
-118.728
-119.6919
-137.8227
-156.7542
-167.9586
-170.1553
-165.9827
-157.1495
-144.1009
-130.5283
-114.6401
-98.01901
-83.92459
-71.25214
-57.50983
-45.17896
-35.07408
-27.57719
-21.94465
-19.44346
-19.37783
-21.94668
-24.50718
-38.6666
-35.23957
-35.65762
-36.20545
-36.9133
-37.60738
-39.07319
-42.23846
-45.95533
-48.88977
-50.42264
-51.38603
-52.17767
-53.04536
-54.69631
-55.86946
-56.73406
-57.64949
-59.32767
-64.05404
-68.57008
-73.31576
-85.45539
-108.6628
-135.8017
-145.6933
-117.9792
-81.72363
-63.57312
-62.31463
-71.37133
-82.97817
-111.8331
-162.7798
-189.0182
-153.9631
-108.4874
-104.7085
-115.9145
-124.0646
-130.7604
-135.3579
-137.9773
-140.0088
-142.02
-143.9689
-145.5786
-146.7184
-147.5555
-148.015
-148.0944
-147.7561
-146.9299
-145.6374
-143.794
-141.6283
-139.1327
-136.1381
-132.7662
-129.1296
-125.4411
-121.4994
-117.5961
-113.6082
-109.3502
-105.059
-100.9474
-96.69692
-92.55129
-88.47554
-84.40924
-80.43962
-76.56478
-72.84777
-69.26842
-65.78905
-62.37957
-59.11264
-56.07523
-53.20753
-50.55468
-48.09884
-45.86587
-43.98883
-42.4867
-41.32225
-40.72594
-40.6755
-41.05109
-42.05875
-43.65366
-45.53969
-47.98335
-50.47536
-52.82218
-54.26223
-54.43356
-53.37695
-52.43237
-52.49215
-46.91874
-52.29219
-57.88634
-67.71592
-79.42254
-93.44702
-108.3683
-124.5511
-141.1578
-156.7561
-169.1045
-176.4212
-177.22
-171.5579
-159.4295
-140.1423
-116.9164
-98.93213
-96.36938
-102.4724
-104.2196
-99.77721
-98.38685
-105.5834
-99.46213
-90.44634
-79.66465
-69.76045
-77.75139
-91.9939
-109.5958
-127.3832
-143.0432
-153.4067
-155.6694
-148.0645
-134.8442
-119.4598
-117.7709
-130.7938
-128.3396
-111.4469
-102.938
-101.7123
-101.4982
-102.4763
-102.9974
-103.9043
-103.4545
-122.5507
-82.77753
-71.809
-59.88604
-52.30199
-46.01559
-40.76312
-36.247
-32.16907
-28.59362
-25.37668
-22.4336
-19.75441
-17.22842
-14.83151
-12.58471
-10.49624
-8.562391
-6.690664
-4.900028
-3.187383
-1.552444
0.009944514
1.472847
2.919092
4.333752
5.717541
7.050909
8.302206
9.510244
10.70367
11.88503
13.04985
14.15671
15.22194
16.29111
17.33472
18.37591
19.39791
20.41186
21.40833
22.40238
23.35885
24.30956
25.24318
26.17414
27.09013
27.98751
28.88714
29.80753
30.72717
31.61947
32.49979
33.3771
34.28488
35.21233
36.11868
37.0286
37.95745
38.88649
39.82919
40.77577
41.72456
42.71955
43.82317
44.93961
46.00102
47.1071
48.33995
49.81945
51.40045
52.63217
53.92147
53.00297
51.53032
50.2854
49.23676
48.23498
47.17765
46.15084
45.24333
44.40471
43.50806
42.58681
41.6791
40.82211
39.9882
39.15487
38.30404
37.44862
36.62663
35.80865
34.96939
34.13171
33.30536
32.45422
31.62335
30.76356
29.85967
28.98121
28.11891
27.2499
26.34638
25.40705
24.48794
23.54497
22.55698
21.5739
20.58286
19.54016
18.4878
17.43184
16.34752
15.19005
13.97689
12.76727
11.56378
10.29456
8.965095
7.59146
6.138754
4.626927
3.064408
1.43632
-0.2058929
-2.001597
-3.912314
-5.895862
-8.037103
-10.26137
-12.71009
-15.35898
-18.1775
-21.22768
-24.67465
-28.53688
-32.91187
-37.83648
-43.58537
-50.6775
-59.20896
-72.60764
-85.26361
53.63536
53.034
51.6806
50.42728
49.35951
48.36476
47.30347
46.27083
45.362
44.52426
43.61954
42.69874
41.7843
40.92155
40.0822
39.24784
38.39269
37.52863
36.70494
35.88309
35.03829
34.19857
33.37187
32.51268
31.68625
30.82389
29.91053
29.03372
28.1689
27.29826
26.38793
25.46233
24.52923
23.58576
22.59237
21.60947
20.6158
19.56248
18.50928
17.4554
16.37567
15.2104
13.98637
12.7768
11.58096
10.30408
8.971897
7.601012
6.14074
4.624131
3.054817
1.420784
-0.2059945
-2.016759
-3.933228
-5.919582
-8.077068
-10.28912
-12.76112
-15.42253
-18.24699
-21.29678
-24.76735
-28.6614
-33.04715
-38.00262
-43.79556
-50.91538
-59.52696
-72.58633
-85.23633
-82.92266
-71.80502
-60.17201
-52.49644
-46.22112
-40.92331
-36.37876
-32.28073
-28.67597
-25.4596
-22.49609
-19.80951
-17.2825
-14.87314
-12.61299
-10.51204
-8.588541
-6.711984
-4.914832
-3.194421
-1.556648
0.0146176
1.471417
2.92106
4.337758
5.727217
7.070697
8.318525
9.525972
10.72471
11.90826
13.07607
14.18584
15.24728
16.32217
17.36524
18.41163
19.43433
20.4525
21.4685
22.45193
23.40801
24.36275
25.29926
26.23432
27.15409
28.05131
28.95364
29.8815
30.80911
31.70105
32.58453
33.46368
34.37505
35.31235
36.22076
37.13559
38.07247
39.003
39.94818
40.90202
41.86043
42.85715
43.96859
45.09234
46.14726
47.26673
48.51016
49.97652
51.48816
52.54916
-47.10725
-51.75251
-57.05249
-66.51879
-77.92362
-91.99937
-106.8353
-123.0819
-139.9064
-155.9046
-168.7272
-176.5088
-177.4591
-172.906
-161.6962
-143.4241
-121.6907
-103.2379
-97.62681
-102.8609
-105.2401
-101.2603
-97.84599
-103.904
-99.77582
-92.09029
-80.94132
-70.54943
-78.74966
-92.86061
-110.6292
-128.4616
-144.0326
-154.3493
-156.8079
-149.3688
-136.7423
-121.4296
-119.2689
-131.697
-128.6895
-111.3157
-102.9534
-101.8579
-101.7162
-102.6739
-103.0126
-103.6805
-104.3351
-116.8442
-37.35223
-35.4428
-35.60148
-36.09406
-36.81488
-37.48537
-38.81254
-41.84819
-45.66858
-48.77657
-50.32505
-51.30278
-52.22866
-52.97928
-54.24873
-55.66152
-56.80809
-57.4941
-58.93713
-63.7213
-68.00025
-72.06945
-84.03971
-108.0789
-136.9883
-150.6413
-126.1155
-83.02831
-61.52029
-61.44742
-71.16264
-82.81762
-110.7134
-161.469
-189.6135
-156.4733
-111.667
-106.5957
-116.9166
-124.4149
-130.8622
-135.3536
-138.0534
-140.2118
-142.2312
-144.1618
-145.7822
-146.8953
-147.7184
-148.1485
-148.1994
-147.803
-146.9632
-145.6817
-143.8117
-141.6255
-139.1474
-136.137
-132.746
-129.0611
-125.3946
-121.4108
-117.4906
-113.5298
-109.2521
-104.9082
-100.8049
-96.54491
-92.37537
-88.31159
-84.22785
-80.24111
-76.35376
-72.64361
-69.06893
-65.58672
-62.17416
-58.90712
-55.88632
-53.019
-50.38088
-47.94732
-45.7212
-43.85786
-42.40198
-41.26032
-40.70729
-40.72601
-41.14731
-42.2222
-43.89336
-45.84547
-48.35941
-50.85396
-53.17852
-54.53514
-54.45949
-53.20241
-52.46022
-51.82386
-123.835
-113.6868
-110.9065
-111.0228
-113.8391
-112.2752
-109.6413
-106.231
-107.0891
-108.0947
-108.4119
-106.8236
-106.1445
-106.0087
-106.1562
-106.015
-104.9584
-102.2525
-98.79631
-101.5035
-112.2708
-129.0955
-134.466
-131.2683
-124.4982
-128.698
-130.4342
-119.451
-123.5093
-142.5966
-160.1335
-169.605
-170.4593
-165.8489
-156.8947
-143.32
-129.6945
-113.6212
-96.77105
-82.72544
-70.23079
-56.41938
-44.21395
-34.24951
-26.95471
-21.68268
-19.54044
-19.77572
-22.47862
-25.45552
-116.6509
-112.9329
-110.1204
-110.0501
-113.7131
-113.0259
-110.6417
-106.8627
-107.3701
-108.143
-108.4971
-106.8391
-106.1054
-106.0277
-106.2912
-106.3022
-105.3479
-102.6385
-99.21475
-102.5086
-113.9819
-131.437
-136.3716
-130.8694
-121.9992
-130.3279
-132.8514
-121.8611
-129.5623
-148.4386
-164.0849
-171.8613
-171.7342
-165.954
-156.9025
-142.588
-128.6638
-112.3491
-95.35022
-81.35742
-68.90099
-54.72786
-42.87786
-33.28275
-26.32897
-21.58421
-19.88248
-20.31122
-23.19556
-26.4857
-36.18475
-35.52452
-35.54063
-35.95395
-36.70625
-37.3608
-38.50823
-41.36558
-45.32948
-48.68859
-50.25416
-51.22608
-52.2843
-52.91343
-53.73671
-55.31173
-57.01203
-57.5382
-58.47506
-63.28294
-67.25943
-70.65394
-81.95882
-106.6219
-137.6713
-155.7141
-135.1876
-85.41595
-59.31944
-60.73993
-71.6161
-83.50565
-109.6544
-157.6204
-186.981
-158.5028
-117.0701
-110.4031
-118.434
-124.8882
-131.0463
-135.43
-138.1922
-140.4834
-142.5113
-144.4102
-146.0625
-147.1442
-147.9595
-148.3587
-148.3806
-147.9787
-147.0694
-145.8027
-143.8974
-141.6919
-139.2408
-136.1746
-132.7595
-129.0216
-125.3965
-121.3499
-117.4598
-113.5265
-109.1789
-104.7637
-100.7315
-96.40419
-92.23162
-88.19304
-84.04319
-80.0452
-76.17083
-72.47187
-68.86885
-65.37592
-61.97654
-58.70546
-55.67638
-52.81972
-50.19532
-47.78248
-45.53701
-43.70057
-42.31123
-41.18621
-40.7002
-40.82195
-41.31146
-42.46935
-44.23399
-46.29083
-48.88685
-51.35085
-53.6369
-54.74539
-54.47044
-52.99909
-52.43439
-51.18233
-47.36008
-51.24743
-56.11441
-65.16827
-76.00857
-89.93386
-105.0099
-121.4515
-138.5183
-155.0168
-168.4568
-177.1234
-179.0729
-175.0566
-164.7492
-147.2641
-127.2666
-109.2355
-100.5618
-103.892
-106.5454
-103.7157
-96.88792
-100.5416
-99.63596
-94.12185
-82.64195
-71.75482
-80.34804
-94.33219
-112.1383
-129.827
-145.5414
-155.9164
-158.442
-151.0275
-139.2399
-124.1377
-121.5252
-131.8822
-128.0622
-110.8342
-103.1371
-101.9297
-101.9542
-103.0202
-103.2292
-103.397
-104.2821
-110.8844
-82.91945
-71.62291
-60.40724
-52.66588
-46.46155
-41.08744
-36.49828
-32.39173
-28.77662
-25.55617
-22.5482
-19.86907
-17.34848
-14.91159
-12.64132
-10.54153
-8.633143
-6.733958
-4.926789
-3.195135
-1.563148
0.01183931
1.465577
2.916772
4.335615
5.740399
7.081157
8.321754
9.537844
10.73751
11.90897
13.07931
14.20718
15.26065
16.3415
17.38163
18.43677
19.46322
20.484
21.48348
22.47209
23.43268
24.39639
25.33436
26.26844
27.18628
28.08926
28.99775
29.92461
30.84953
31.73966
32.63213
33.51252
34.42668
35.37291
36.28594
37.20128
38.13849
39.07198
40.02922
40.99162
41.96075
42.95135
44.0787
45.22913
46.28445
47.43161
48.67531
50.10739
51.53086
52.39675
53.24827
52.9588
51.80338
50.58171
49.49287
48.49571
47.41117
46.36321
45.45284
44.6205
43.69176
42.76895
41.84938
40.99092
40.14177
39.30411
38.4484
37.58212
36.76387
35.93566
35.08287
34.24293
33.41654
32.54596
31.72902
30.85503
29.93292
29.06074
28.19777
27.33273
26.41088
25.46371
24.547
23.59987
22.60162
21.63209
20.64483
19.57959
18.5241
17.46302
16.3907
15.2284
13.99472
12.77244
11.58804
10.30921
8.968339
7.600706
6.139677
4.623803
3.045051
1.387157
-0.2190984
-2.047967
-3.951902
-5.942437
-8.132977
-10.31502
-12.81962
-15.47881
-18.32673
-21.37736
-24.86426
-28.78412
-33.18101
-38.17053
-44.01167
-51.14241
-59.78472
-72.34204
-84.85394
52.79656
52.74946
51.85843
50.7496
49.69253
48.73297
47.60308
46.51632
45.626
44.83577
43.90092
42.94108
41.97613
41.12826
40.30019
39.44258
38.54972
37.6642
36.87392
36.04472
35.17269
34.3396
33.52058
32.61566
31.86492
30.94864
29.99623
29.13933
28.24593
27.41067
26.47573
25.56121
24.65622
23.67128
22.61766
21.65337
20.67644
19.61437
18.58415
17.51178
16.39397
15.23356
14.04249
12.80718
11.59225
10.33433
8.992172
7.580889
6.123064
4.626487
3.082833
1.401946
-0.2242618
-2.125315
-3.987949
-5.941577
-8.220563
-10.34855
-12.94265
-15.52548
-18.38862
-21.54632
-25.05041
-28.98479
-33.38905
-38.42297
-44.34869
-51.5029
-60.17629
-71.98698
-84.52233
-82.67032
-71.43535
-60.81811
-52.96663
-46.86213
-41.23854
-36.67026
-32.60146
-28.96983
-25.64239
-22.5865
-19.98059
-17.43293
-14.94479
-12.71328
-10.61316
-8.646049
-6.711778
-4.934323
-3.201777
-1.605026
-0.01281113
1.486928
2.893952
4.350269
5.763504
7.055109
8.353648
9.580943
10.74461
11.905
13.13926
14.30503
15.29331
16.39094
17.42582
18.50053
19.52352
20.53572
21.52887
22.54972
23.52786
24.48276
25.41598
26.33575
27.28262
28.20667
29.08775
29.99349
30.96181
31.88698
32.76719
33.64493
34.54191
35.52004
36.45636
37.32364
38.30257
39.27056
40.21005
41.16885
42.1451
43.12384
44.30009
45.51275
46.51194
47.63563
48.81985
50.19903
51.51888
52.15549
-47.62832
-50.75713
-55.22997
-63.82103
-74.02626
-87.11466
-102.7354
-119.6191
-136.8073
-153.9663
-168.1203
-177.5636
-179.7429
-177.5265
-168.797
-152.1659
-133.6158
-117.0505
-106.0691
-105.6437
-107.8617
-107.3687
-95.02642
-96.09244
-99.12839
-96.49755
-84.74288
-73.38722
-82.57141
-96.86746
-114.4934
-131.988
-147.7688
-158.6931
-161.5189
-153.3921
-142.3222
-127.2695
-123.8211
-130.0872
-125.1437
-109.4981
-103.215
-101.9691
-101.9633
-103.898
-103.4054
-102.8848
-103.2116
-105.1909
-35.2563
-34.95251
-35.09755
-35.68824
-36.4866
-37.1911
-38.14445
-40.84348
-44.88988
-48.61757
-50.05864
-50.99397
-52.2816
-52.84803
-53.20924
-54.84111
-56.94207
-57.1673
-57.73971
-62.79084
-66.3264
-68.97862
-79.10055
-103.9849
-137.0378
-160.2421
-144.718
-90.14452
-58.9377
-60.98334
-72.61444
-85.32476
-108.7522
-149.5017
-176.1259
-156.9841
-122.5613
-114.5998
-120.2911
-125.6196
-131.2174
-135.6242
-138.4222
-140.7893
-142.819
-144.6429
-146.4309
-147.451
-148.2358
-148.5868
-148.5358
-148.1434
-147.1801
-145.9863
-144.0203
-141.7872
-139.2861
-136.1462
-132.7845
-129.0407
-125.3734
-121.3184
-117.4643
-113.3362
-108.912
-104.5745
-100.5436
-96.13064
-92.03839
-87.9014
-83.64529
-79.77315
-75.9466
-72.13873
-68.48181
-65.0525
-61.75622
-58.37548
-55.34875
-52.568
-49.95411
-47.53421
-45.25646
-43.53075
-42.23231
-41.13166
-40.73872
-40.99619
-41.59599
-42.84952
-44.71866
-46.90217
-49.65315
-52.06918
-54.28614
-55.07315
-54.44228
-52.71616
-52.2438
-50.59342
-109.8867
-110.3324
-109.4729
-110.2751
-114.3273
-114.8415
-111.7536
-107.2976
-107.4053
-108.1487
-108.5638
-106.8709
-106.1432
-106.1187
-106.5669
-106.7731
-105.9695
-103.272
-100.0091
-103.9449
-117.2154
-134.547
-138.2537
-130.3794
-119.5628
-132.7338
-135.8925
-126.9281
-138.1349
-155.2128
-168.5309
-174.4922
-172.9334
-165.6661
-157.0443
-141.2979
-126.466
-110.486
-93.76696
-79.62454
-67.31705
-52.77943
-41.25349
-32.2855
-25.80206
-21.64647
-20.60459
-21.02417
-24.14623
-27.64133
-0.2075801
-0.04695096
1.041998
5.573518
-125.0945
-1.514998
1.092333
6.032194
2.998687
2.6955
-10.35802
-122.0395
-0.07335623
4.881762
1.479408
6.810255
8.546257
1.315598
5.086651
-26.72157
-9.715481
5.046003
1.615586
4.938058
-0.5915688
6.043628
4.845142
3.564295
5.025372
-1.270326
1.934754
-0.2211416
-8.590773
-0.1433294
5.778937
3.953346
2.100366
7.043017
1.097044
6.101575
6.951917
-0.05793159
-5.16105
-134.5888
0.1148004
-17.18768
0.2022075
-0.06123595
-0.1072294
7.185841
3.732258
-1.070564
1.727099
-4.002958
5.906834
2.576888
2.399408
1.692153
-0.05815388
-0.04594553
1.231693
4.631354
-1.438302
-42.43135
7.504547
-2.673292
-1.136162
-13.73986
12.34117
-2.338953
-21.90488
-1.233988
6.070014
4.840287
4.405852
4.496257
3.92757
3.697869
-0.2204229
4.634374
-4.72043
3.422529
-42.617
-1.37049
-3.120269
-1.505039
9.452972
1.647085
-1.540261
1.159222
7.875031
8.252369
6.519972
3.490927
-15.30998
3.505484
6.832493
5.359652
-82.97983
-97.12426
-3.425176
-37.11491
7.213169
-7.899848
3.762387
5.546699
-17.54031
6.094569
-11.65539
6.13116
2.412932
-172.2318
1.331258
-1.281781
-1.956982
0.6805597
-1.380467
-24.60829
-1.011792
2.900195
0.09352247
-5.639618
-1.389867
0.3010918
4.939045
-14.07926
-0.08187176
2.413099
-1.223242
2.698599
12.37801
8.316393
5.522094
-11.42723
1.253496
0.9658236
2.824161
-35.65238
2.650156
6.92763
5.563531
7.436794
6.075719
0.9442867
-0.03971981
10.7637
5.636295
-0.8160186
-0.6196472
-5.178437
-8.354684
-1.839233
-1.18288
5.518342
8.199837
5.421544
-1.126906
-8.965695
0.31411
2.761748
-12.29911
5.75589
2.681604
0.898457
8.290582
0.8227535
-4.570998
7.368488
-1.239464
5.429105
2.043748
-12.29267
1.304555
5.496386
-0.8921527
0.2078103
-0.5215174
-1.045084
-1.574056
-46.54694
-5.102066
6.466648
5.184778
1.498523
0.8229636
2.805527
6.586184
6.239241
8.767285
-1.592345
2.355289
2.245915
3.626471
2.129342
-20.52846
0.2335952
-2.369955
-55.30348
11.06987
0.4074653
-4.401569
2.350803
0.9952216
8.95906
0.7749602
0.830272
1.119765
1.334384
0.4196001
2.704836
0.9749953
4.603782
1.250128
6.041038
-0.1817814
1.811579
5.035745
-1.637505
4.007108
-3.250653
3.368439
2.794535
5.035636
2.551018
19.18182
-3.628166
4.297786
2.864394
4.496109
2.729447
-4.408878
2.749295
5.035513
6.016149
9.452833
-0.4578103
4.636396
4.955136
-224.4024
0.0169209
3.681424
-8.151072
-0.45324
-0.415241
1.206359
0.06308626
-5.173369
3.616227
2.638239
4.964922
4.968165
-188.3776
8.489728
2.065188
0.3047047
3.276273
-6.253498
4.037315
-2.337454
2.128258
5.473108
-11.02925
2.492574
-183.0688
6.262508
3.415056
1.924927
-92.08048
5.172677
-3.461188
-8.440612
1.800962
-1.507963
0.05555075
8.247457
-27.84295
6.025441
1.438108
2.767741
2.799472
2.428414
-4.243309
-7.318907
-1.849823
8.723674
-3.215442
4.310994
6.240267
6.460086
3.399183
3.523264
1.598511
-75.68643
5.462724
7.641389
-104.7503
0.1199037
-30.8645
5.043703