/*--------------------------------*- C++ -*----------------------------------*\
| =========                 |                                                 |
| \\      /  F ield         | OpenFOAM: The Open Source CFD Toolbox           |
|  \\    /   O peration     | Version:  2406                                  |
|   \\  /    A nd           | Website:  www.openfoam.com                      |
|    \\/     M anipulation  |                                                 |
\*---------------------------------------------------------------------------*/
FoamFile
{
    version     2.0;
    format      ascii;
    arch        "LSB;label=32;scalar=64";
    class       surfaceScalarField;
    location    "2";
    object      phi;
}
// * * * * * * * * * * * * * * * * * * * * * * * * * * * * * * * * * * * * * //

dimensions      [0 3 -1 0 0 0 0];

oriented        oriented;

internalField   nonuniform List<scalar> 
326221
(
-0.002552486
-0.006173916
0.008726402
-0.001820302
-0.0007321842
0.001077438
-0.00289774
0.001386545
-0.0003091071
-0.0001196777
0.001506223
-0.0009818517
0.000862174
-0.0006481671
-0.0003336845
0.0002390071
-0.0008871742
0.000719885
-0.0004808779
0.0005150393
0.0002048457
-0.0001732734
0.0006883127
-0.0003889605
0.0002156872
-0.0002499124
-0.0001390481
-0.0001532298
-9.668259e-05
-0.0002457673
9.253748e-05
-0.0003450047
9.923743e-05
-0.0002996954
-4.530933e-05
1.205326e-05
-0.0003117486
0.0007054695
-0.0006934163
0.00188503
-0.00117956
0.003201956
-0.001316927
0.002847394
0.0003545626
0.0007778207
0.002069573
-0.0006340186
0.001411839
0.0005520462
-0.001186065
0.001784725
-0.001232679
0.001355012
0.0004297127
0.001309326
4.56864e-05
0.00134816
-3.883431e-05
-0.0009422945
0.002290455
-0.004075695
0.0031334
-0.005808463
0.001732768
-0.006316112
0.0005076496
-0.006360978
4.486553e-05
-0.006237481
-0.0001234967
-0.005968657
-0.0002688243
-0.005700843
-0.0002678139
-0.005352484
-0.0003483586
-0.004897304
-0.0004551807
-0.004451906
-0.0004453982
-0.00403513
-0.0004167756
-0.003451879
-0.0005832514
-0.002775076
-0.0006768029
-0.002071194
-0.0007038819
-0.001479311
-0.0005918824
-0.0007269291
-0.0007523823
7.659547e-05
-0.0008035245
0.0006746052
-0.0005980098
0.001313603
-0.0006389975
0.001526984
-0.0002133811
-0.001102146
0.00262913
-0.0004144383
-0.0006877073
0.0005959698
-0.001010408
0.0008595024
-0.0002635327
0.0009187279
-5.922542e-05
0.001127291
-0.0002085629
0.00147454
-0.0003472496
0.001713554
-0.0002390138
0.001879304
-0.0001657494
0.001875189
4.114556e-06
0.001458687
0.0004165019
0.0006874135
0.0007712736
0.0001116961
0.0005757174
-5.47848e-05
0.0001664809
0.0001175683
-0.0001723531
0.0005701175
-0.0004525492
0.0009681671
-0.0003980496
0.001361868
-0.0003937008
0.001714559
-0.0003526907
0.001269835
0.0004447233
0.0006305174
0.000639318
0.001045755
-0.0004152381
0.002587447
-0.001541691
0.004125333
-0.001537886
0.004408441
-0.0002831088
0.001765517
0.002642924
-0.00193334
0.003698857
-0.00322284
0.0012895
-0.001594085
-0.001628756
0.0005986638
-0.002192748
0.002005184
-0.00140652
0.003572868
-0.001567685
0.005448117
-0.001875248
0.005331813
0.0001163036
0.001861569
0.003470244
-0.001528266
0.003389835
-0.0009657794
-0.0005624864
0.000882737
-0.001848516
0.00161657
-0.0007338334
0.001924744
-0.0003081739
0.001917524
7.219884e-06
0.001573506
0.0003440183
0.001026814
0.0005466922
0.0003510083
0.0006758056
-0.0003936311
0.0007446394
-0.001205951
0.0008123204
-0.002050393
0.0008444415
-0.002858602
0.0008082092
-0.003569024
0.0007104219
-0.00413085
0.0005618257
-0.004538751
0.0004079007
-0.004816307
0.0002775561
-0.004996228
0.0001799214
-0.005104959
0.0001087309
-0.005151616
4.665736e-05
-0.005155437
3.820281e-06
-0.005129414
-2.60223e-05
-0.005074132
-5.528271e-05
-0.004994937
-7.919476e-05
-0.004898026
-9.691074e-05
-0.004794855
-0.0001031711
-0.004674709
-0.0001201461
-0.004551963
-0.0001227456
-0.004425408
-0.000126555
-0.004286996
-0.0001384126
-0.004148748
-0.0001382473
-0.004105136
-4.361284e-05
-0.003964828
-0.0001403075
-0.003828055
-0.0001367729
-0.003693702
-0.0001343537
-0.003556819
-0.0001368823
-0.003422717
-0.0001341025
-0.003290166
-0.0001325508
-0.003161465
-0.000128701
-0.003033981
-0.0001274836
-0.002904116
-0.0001298652
-0.002765052
-0.0001390636
-0.002616968
-0.0001480848
-0.002464269
-0.0001526986
-0.002299207
-0.0001650622
-0.002124992
-0.000174215
-0.001938317
-0.0001866747
-0.001734814
-0.0002035027
-0.001525265
-0.0002095493
-0.001310878
-0.0002143872
-0.00106983
-0.0002410479
-0.0008261787
-0.0002436513
-0.0005860678
-0.0002401109
-0.000314043
-0.0002720248
-4.696866e-05
-0.0002670744
0.0001957859
-0.0002427545
0.0004739469
-0.0002781611
0.0007385753
-0.0002646283
0.000976314
-0.0002377387
0.001110893
-0.0001345793
0.001079477
3.141627e-05
0.0007707713
0.0003087058
0.0007400774
3.069387e-05
0.0007330217
7.055782e-06
-0.0008497619
0.001582784
-0.0002146526
-0.0006351092
0.0009002869
-0.00111494
0.001570363
-0.0006700757
0.002127588
-0.0005572252
0.002829263
-0.0007016754
0.003443373
-0.0006141096
0.004041158
-0.0005977851
0.004612596
-0.0005714379
0.005116693
-0.0005040971
0.005475812
-0.0003591187
0.005654026
-0.0001782143
0.00557772
7.630556e-05
0.005200522
0.000377198
0.004342326
0.0008581966
0.002699309
0.001643017
0.0002719969
0.002427312
-0.00178208
0.002054077
-0.002278981
0.0004969013
-0.002200814
-7.816654e-05
-0.002418026
0.0002172117
-0.002167431
-0.0002505955
-0.0009268473
-0.001240583
0.0005218943
-0.001448742
0.0004922558
2.963847e-05
-0.0007217479
0.001214004
-0.002217148
0.0014954
-0.002701092
0.0004839444
-0.001312177
-0.001388916
0.0001566018
-0.001468778
0.001306806
-0.001150205
0.002461603
-0.001154796
0.003437128
-0.0009755256
0.004106214
-0.0006690857
0.004273922
-0.0001677081
0.003522534
0.0007513881
0.001746073
0.001776461
-0.0001871771
0.00193325
-0.0008581117
0.0006709346
-0.001050009
0.0001918978
-0.002350498
0.001300488
-0.002788116
0.0004376177
-0.001691709
-0.001096406
-0.0007138734
-0.0009778361
-0.000146168
-0.0005677054
0.0004054105
-0.0005515785
0.0005864773
-0.0001810668
-9.437068e-05
0.000680848
0.001439481
-0.001533852
0.002348826
-0.0009093448
-0.005682369
0.008031195
-0.00593432
0.000251951
-0.005128492
-0.0008058277
-0.004809607
-0.0003188859
-0.004490657
-0.0003189491
-0.00425045
-0.0002402071
-0.004030862
-0.0002195887
-0.003840023
-0.0001908392
-0.003582283
-0.0002577392
-0.00345015
-0.000132133
-0.003337783
-0.0001123671
-0.003234231
-0.000103552
-0.003142079
-9.215229e-05
-0.003053106
-8.897247e-05
-0.00296827
-8.483687e-05
-0.002887399
-8.08705e-05
-0.002815234
-7.216478e-05
-0.002749053
-6.61814e-05
-0.002685415
-6.363814e-05
-0.002622665
-6.274988e-05
-0.002564292
-5.837311e-05
-0.002508295
-5.599667e-05
-0.002456291
-5.200412e-05
-0.002409925
-4.636612e-05
-0.002362433
-4.74919e-05
-0.002314968
-4.746494e-05
-0.002266999
-4.79688e-05
-0.002222215
-4.478458e-05
-0.002182552
-3.966216e-05
-0.002146778
-3.577402e-05
-0.002109267
-3.751109e-05
-0.002072195
-3.70725e-05
-0.002032956
-3.923879e-05
-0.001998871
-3.408524e-05
-0.00196743
-3.144053e-05
-0.001934278
-3.31518e-05
-0.001900689
-3.358956e-05
-0.001866024
-3.466485e-05
-0.00183503
-3.099423e-05
-0.001806434
-2.859582e-05
-0.00183821
3.177583e-05
-0.001823915
-1.429457e-05
-0.001804136
-1.977896e-05
-0.001784164
-1.997263e-05
-0.001767008
-1.715544e-05
-0.001749213
-1.779508e-05
-0.001733731
-1.548245e-05
-0.001720152
-1.35782e-05
-0.001707423
-1.272919e-05
-0.001691386
-1.603759e-05
-0.001675077
-1.630888e-05
-0.001662861
-1.221575e-05
-0.001653819
-9.042263e-06
-0.001648176
-5.642364e-06
-0.001639485
-8.6916e-06
-0.001628448
-1.103673e-05
-0.001620388
-8.05988e-06
-0.001614958
-5.430346e-06
-0.001607486
-7.471679e-06
-0.00160253
-4.956153e-06
-0.0015962
-6.330188e-06
-0.001588845
-7.354581e-06
-0.001582369
-6.476456e-06
-0.001574379
-7.989355e-06
-0.001549209
-2.517004e-05
-0.001513676
-3.553296e-05
-0.001479814
-3.386284e-05
-0.001433953
-4.586077e-05
-0.001361158
-7.279498e-05
-0.001191001
-0.0001701571
-0.0009157931
-0.0002752076
-0.000170708
-0.0007450852
0.0006958902
-0.0008665981
0.0009809669
-0.0002850768
0.001172404
-0.0001914373
0.001276655
-0.0001042504
0.001346563
-6.990837e-05
0.001407343
-6.078009e-05
0.001448448
-4.11051e-05
0.001466887
-1.843889e-05
0.001481007
-1.411961e-05
0.001506592
-2.55853e-05
0.001531481
-2.488869e-05
0.001552899
-2.141812e-05
0.001568254
-1.535483e-05
0.001583511
-1.525739e-05
0.001599203
-1.56916e-05
0.001618464
-1.926101e-05
0.001636693
-1.822945e-05
0.001651224
-1.453059e-05
0.001666254
-1.503038e-05
0.001684572
-1.831819e-05
0.00170132
-1.674819e-05
0.001717171
-1.585072e-05
0.00173629
-1.911879e-05
0.001752573
-1.628271e-05
0.001774079
-2.15065e-05
0.001799213
-2.513419e-05
0.00181985
-2.063651e-05
0.001837186
-1.733587e-05
0.00185672
-1.953458e-05
0.001879233
-2.251246e-05
0.001894811
-1.557792e-05
0.001861684
3.312689e-05
0.001890834
-2.914984e-05
0.001926935
-3.610143e-05
0.001963821
-3.688606e-05
0.002001355
-3.753393e-05
0.002041799
-4.044362e-05
0.002080475
-3.867612e-05
0.002116279
-3.580394e-05
0.002154866
-3.858754e-05
0.002197945
-4.307878e-05
0.002244973
-4.702809e-05
0.002286876
-4.190325e-05
0.002327113
-4.023683e-05
0.002370313
-4.320017e-05
0.002417065
-4.675124e-05
0.002464965
-4.790057e-05
0.002518221
-5.325616e-05
0.002573795
-5.557311e-05
0.002630087
-5.629282e-05
0.002688544
-5.845672e-05
0.002743831
-5.528694e-05
0.002809103
-6.527168e-05
0.002877672
-6.856982e-05
0.002949451
-7.177848e-05
0.003026845
-7.739394e-05
0.003106972
-8.012666e-05
0.003195859
-8.888714e-05
0.00329322
-9.736145e-05
0.003393563
-0.0001003429
0.003502661
-0.0001090975
0.003627127
-0.0001244661
0.003772469
-0.0001453426
0.004045311
-0.0002728419
0.004252581
-0.0002072701
0.004489105
-0.0002365236
0.004754579
-0.0002654741
0.005102085
-0.0003475064
0.005437034
-0.0003349485
0.006342875
-0.0009058407
0.0001689587
0.000858798
0.0002013387
-0.001926735
0.001299902
-0.0007261807
0.001614958
-0.0005064935
0.001862881
-0.000352173
0.002056034
-0.0002630618
0.002224757
-0.0002295026
0.002368221
-0.0001845693
0.002485156
-0.0001353744
0.002588225
-0.0001171882
0.00269269
-0.0001300499
0.002790277
-0.0001224758
0.002881812
-0.0001129531
0.00296431
-9.785326e-05
0.003043361
-9.430803e-05
0.003117802
-9.013261e-05
0.003192423
-9.388242e-05
0.003263693
-8.949958e-05
0.003330922
-8.175941e-05
0.003395829
-7.993681e-05
0.003461631
-8.412079e-05
0.003524997
-8.011367e-05
0.003586159
-7.701287e-05
0.003649052
-8.201164e-05
0.00370814
-7.537065e-05
0.003770217
-8.35839e-05
0.003833474
-8.839166e-05
0.0038947
-8.186241e-05
0.003951997
-7.463259e-05
0.004011092
-7.862905e-05
0.004070478
-8.189862e-05
0.004128032
-7.313205e-05
0.004097053
6.410604e-05
0.004166304
-9.840104e-05
0.004238993
-0.0001087909
0.004311976
-0.0001098683
0.004385268
-0.0001108266
0.004459909
-0.0001150843
0.004534168
-0.0001129349
0.004605377
-0.000107013
0.004679229
-0.0001124399
0.004754245
-0.0001180942
0.004833868
-0.0001266513
0.004908886
-0.0001169212
0.004984221
-0.0001155718
0.005060345
-0.0001193241
0.005139719
-0.0001261255
0.005219254
-0.0001274358
0.005303176
-0.0001371776
0.005389335
-0.0001417329
0.005476171
-0.0001431287
0.005566185
-0.0001484704
0.005653048
-0.0001421504
0.005748783
-0.0001610063
0.005845575
-0.0001653616
0.005947139
-0.000173343
0.006051833
-0.0001820878
0.00616075
-0.0001890434
0.00627559
-0.0002037275
0.006398839
-0.0002206097
0.006524511
-0.0002260158
0.006658842
-0.000243428
0.006805925
-0.0002715495
0.006971159
-0.0003105767
0.007327768
-0.0006294509
0.00755253
-0.0004320318
0.007812451
-0.0004964441
0.008097499
-0.0005505226
0.008475085
-0.000725092
0.008810728
-0.000670592
0.009794554
-0.001889666
0.009128819
0.0008346933
-0.009364523
0.008552508
0.001063966
-0.00845105
-0.001719301
-0.008140035
-0.000629901
-0.007788751
-0.0006702327
-0.007525782
-0.0005031763
-0.007279976
-0.0004653947
-0.007068345
-0.0004024707
-0.006724567
-0.0006015166
-0.006569437
-0.0002872634
-0.006432745
-0.0002490592
-0.006303398
-0.0002328988
-0.006184798
-0.0002107519
-0.00606874
-0.0002050304
-0.00595824
-0.000195337
-0.00585038
-0.0001887304
-0.005751383
-0.0001711622
-0.005655759
-0.0001618052
-0.005564646
-0.0001547515
-0.005473586
-0.0001538097
-0.005387911
-0.0001440481
-0.005303681
-0.0001402267
-0.005223695
-0.00013199
-0.005147925
-0.0001221364
-0.005072109
-0.000123308
-0.004997602
-0.0001219718
-0.00492289
-0.000122681
-0.00485171
-0.0001159646
-0.004782993
-0.0001083789
-0.004718069
-0.0001006979
-0.004650356
-0.0001052243
-0.004584839
-0.0001025895
-0.004516492
-0.0001075862
-0.004452728
-9.784905e-05
-0.004389347
-9.482117e-05
-0.004325263
-9.723555e-05
-0.004260409
-9.844379e-05
-0.00419499
-0.0001000837
-0.004132085
-9.389924e-05
-0.004070193
-9.048814e-05
-0.004109299
7.08819e-05
-0.004061065
-6.252856e-05
-0.004010613
-7.023062e-05
-0.003958802
-7.178413e-05
-0.003909571
-6.638669e-05
-0.003857913
-6.945306e-05
-0.003807933
-6.546241e-05
-0.003757084
-6.442723e-05
-0.003706277
-6.353551e-05
-0.003651853
-7.046236e-05
-0.003596832
-7.132926e-05
-0.003542925
-6.612279e-05
-0.003488521
-6.344658e-05
-0.003433955
-6.020804e-05
-0.003374148
-6.849908e-05
-0.003311131
-7.405298e-05
-0.003246736
-7.245503e-05
-0.003181357
-7.080978e-05
-0.003110054
-7.877438e-05
-0.003037443
-7.756727e-05
-0.002958219
-8.555452e-05
-0.002873405
-9.216857e-05
-0.002782509
-9.737256e-05
-0.002684121
-0.0001063774
-0.002565644
-0.0001436461
-0.002432936
-0.0001682412
-0.00229074
-0.0001760589
-0.002121841
-0.0002147602
-0.0019096
-0.000285036
-0.001612352
-0.0004674047
-0.001154163
-0.0007333971
-0.001697909
-0.000591874
0.0009488956
-0.0009921309
0.000495332
-0.002202145
0.001392247
-0.001566991
0.002264694
-0.001429672
0.00317488
-0.001611861
0.00397699
-0.00141622
0.00477984
-0.001400635
0.005572639
-0.001364237
0.006307096
-0.001238554
0.006895253
-0.0009472762
0.007294893
-0.0005778543
0.007491279
-0.0001200806
0.007532226
0.0003362517
0.00730734
0.001083082
0.006400648
0.002549709
0.003861614
0.004966346
-0.0003842115
0.006299902
-0.003463315
0.003576005
-0.003855129
0.0003136472
-0.003639836
1.918803e-06
-0.003108396
-0.0007820356
-0.001752756
-0.002596224
-0.00011739
-0.003084107
0.0001633046
-0.0002510562
-0.001993687
0.003370996
-0.004182258
0.003683971
-0.003585303
-0.0001130105
-0.001351466
-0.003622753
0.0002421625
-0.003062406
0.001721501
-0.002629543
0.003229816
-0.002663112
0.004514824
-0.002260534
0.005397459
-0.00155172
0.005871637
-0.0006418865
0.005812192
0.0008108336
0.004576309
0.003012344
0.001716276
0.004793282
-0.0009298655
0.003317077
-0.002404853
0.001666885
-0.003536099
0.002431734
-0.003372779
0.000274298
-0.001887532
-0.002581653
-0.0007377082
-0.00212766
1.096775e-05
-0.001316381
0.0007136
-0.001254211
0.001177691
-0.0006451576
0.001297756
0.000560783
0.002541842
-0.002777938
0.0008618417
0.0007706555
0.01744554
-0.001067838
-0.001726008
0.005422975
-0.0005601935
-0.001195352
0.0002092031
-0.001779805
0.000494475
-0.0005488045
0.0007299718
-0.0002947222
0.001049678
-0.0005282689
0.001520922
-0.000818494
0.001908825
-0.0006269168
0.00218966
-0.0004465838
0.002481377
-0.0002876027
0.002677719
0.0002201594
0.002220093
0.001228899
0.0009401017
0.001855709
-6.907121e-05
0.001175654
0.0001412456
-0.0003826699
0.0008496538
-0.001160957
0.001310565
-0.0008589604
0.001689114
-0.0007722503
0.002346481
-0.001010057
0.002394649
0.0003965548
0.001480717
0.00155325
0.001544602
-0.0004791227
0.00330237
-0.00329946
0.005105885
-0.003341401
0.0062268
-0.001404023
0.004434208
0.004435516
-0.001264975
0.00939804
-0.004333245
0.00435777
-0.00173879
-0.00422321
0.000843735
-0.004775273
0.002230196
-0.002792981
0.003978113
-0.003315602
0.006025636
-0.003922771
0.007025594
-0.0008836549
0.004798077
0.005697761
0.0008402549
0.007347657
6.180847e-05
0.00021596
0.001108557
-0.002895265
0.0010489
-0.0006741764
0.0002464035
0.0004943224
-0.0007463053
0.0009999287
-0.001815287
0.001413
-0.00316173
0.001893135
-0.004531748
0.002045824
-0.005743255
0.001956146
-0.006760543
0.001829608
-0.007575251
0.00165915
-0.008165599
0.001398557
-0.008541849
0.001086671
-0.008738354
0.0007583307
-0.008809721
0.000479268
-0.008803605
0.0002714398
-0.008749991
0.0001263073
-0.008665467
2.420744e-05
-0.008555531
-6.32787e-05
-0.008431917
-0.0001197935
-0.008292196
-0.0001657436
-0.008128611
-0.0002188681
-0.00794631
-0.0002614957
-0.007750359
-0.0002928616
-0.007550899
-0.000302631
-0.007337957
-0.000333088
-0.007124744
-0.0003359589
-0.006909314
-0.000341985
-0.006683491
-0.0003642349
-0.006456807
-0.0003649322
-0.006372992
-0.0001274273
-0.006162159
-0.0003511404
-0.005956678
-0.000342254
-0.005755492
-0.0003355393
-0.005553192
-0.0003391824
-0.005352972
-0.0003343232
-0.005150884
-0.0003346388
-0.004946345
-0.0003332396
-0.004734716
-0.0003391128
-0.004512003
-0.0003525781
-0.004273162
-0.0003779044
-0.004020638
-0.0004006092
-0.003760533
-0.0004128029
-0.003487612
-0.0004379837
-0.00320629
-0.0004555371
-0.002913308
-0.0004796561
-0.002604446
-0.0005123647
-0.002289287
-0.000524709
-0.001967457
-0.0005362165
-0.001619139
-0.000589366
-0.001270814
-0.000591977
-0.0009271927
-0.0005837318
-0.0005523888
-0.0006468287
-0.0001878115
-0.0006316517
0.000146895
-0.0005774609
0.0005261285
-0.0006573946
0.0008835909
-0.0006220907
0.001214398
-0.0005685453
0.001434579
-0.000354761
0.001527107
-6.11116e-05
0.001366262
0.0004695508
0.001289702
0.0001072538
0.0009996309
0.000297127
0.00353131
-0.0008316283
0.01868685
-0.0025895
0.001025688
-0.0003923856
-0.005094855
0.0003565139
-0.001058007
-0.0007903167
0.002653054
-0.001609502
0.001681359
-0.0009125273
-0.001030659
0.0001277675
-0.001927469
0.0009889235
-0.001342034
0.001067772
0.0001259973
4.946586e-05
0.001706619
-0.0005489049
0.000814058
-0.0003497525
-0.0003382006
-0.0002085619
-0.0002378732
-0.0003358564
0.000219832
-0.0005001253
0.0002635064
-0.0004827981
-6.263654e-05
-8.335908e-05
-0.0007111877
0.0008092654
-0.001586041
0.002189702
-0.002559997
0.003936896
-0.00306412
0.00465781
-0.0003663518
0.002484865
0.004242519
0.0001617206
0.003734983
0.001167
-0.002191344
0.002596956
-0.002662635
0.002555112
0.0004715573
0.002208725
0.0003920734
-0.0004106989
0.002580589
-0.005203733
0.007083489
-0.008205691
0.006135359
-0.008775069
0.002302145
-0.008657786
0.0003903667
-0.008471461
-0.0001414589
-0.008187818
-0.0004071405
-0.007742561
-0.000714081
-0.007296622
-0.0007137529
-0.006754178
-0.0008908022
-0.006098845
-0.001110514
-0.005450653
-0.00109359
-0.004817299
-0.001050129
-0.003998927
-0.001401624
-0.003107339
-0.001568391
-0.002197536
-0.001613685
-0.001381132
-0.001408286
-0.0004439552
-0.001689559
0.0004232671
-0.001670747
0.001236105
-0.001410847
0.00188751
-0.001290403
-5.187882e-05
0.001267735
-0.01143916
0.02885827
-0.00280114
0.005094562
-0.001433718
-0.006462276
-0.0006110833
-0.001880641
-0.001735221
0.003777192
-0.002208755
0.002154893
-0.00128927
-0.001950144
-3.804285e-05
-0.003178696
0.00100331
-0.002383387
0.001357928
-0.00022862
0.0004364821
0.002628064
-0.0003766776
0.001627218
-0.0003052624
-0.0004096158
-0.0002440727
-0.0002990629
-0.0005249718
0.0005007311
-0.000864597
0.0006031316
-0.0008451849
-8.204858e-05
-0.0003165091
-0.001239863
0.0007398904
-0.00264244
0.002433113
-0.004253219
0.004335443
-0.00496645
0.005566499
-0.001597407
0.00422183
0.005587187
0.001554247
0.006402566
0.002101068
-0.002738165
0.003287992
-0.003849559
0.003113062
0.0006464871
0.001445714
0.002059422
-0.003803395
0.007829699
-0.008727529
0.01200762
-0.01011058
0.007518408
-0.01009221
0.002283781
-0.01006673
0.0003648852
-0.009867139
-0.0003410519
-0.009526352
-0.0007479278
-0.008988691
-0.001251742
-0.008458426
-0.001244018
-0.00779971
-0.001549518
-0.007013394
-0.00189683
-0.00624595
-0.001861035
-0.005484962
-0.001811117
-0.004480884
-0.002405702
-0.003417116
-0.002632159
-0.002335652
-0.002695149
-0.001284808
-0.00245913
-8.608245e-05
-0.002888284
0.0009831669
-0.002739996
0.001985045
-0.002412726
0.002707397
-0.002012755
0.002259737
0.0003957816
-0.0009580523
0.008640765
-0.0008771731
-0.001276231
-0.0001421699
-0.002514808
0.0001679171
-0.0008588915
0.0004510805
-0.0005778856
0.00076019
-0.0008373784
0.001323773
-0.001382077
0.001823809
-0.001126953
0.0021754
-0.0007981743
0.002442707
-0.0005549103
0.002877192
-0.0002143255
0.0031724
0.0009336919
0.002226063
0.002802046
0.0006487503
0.002752966
0.0004043668
-0.0001382864
0.001203689
-0.00196028
0.001646554
-0.001301825
0.00197651
-0.001102206
0.002679687
-0.001713235
0.003061464
1.477818e-05
0.002591542
0.002023172
0.002677486
-0.0005650669
0.004314445
-0.004936419
0.006256064
-0.00528302
0.007446036
-0.002593995
0.006444212
0.005437341
0.0005225327
0.01531972
-0.004060022
0.008940324
-0.001910597
-0.006372636
0.000311297
-0.006997167
0.001339477
-0.003821161
0.002870652
-0.004846777
0.005016481
-0.0060686
0.006764192
-0.002631366
0.00597483
0.006487124
0.002836436
0.01048605
0.0007065265
0.00234587
-0.001357238
-0.0008315
-0.003771842
0.001740428
-0.005478912
0.002201393
-0.00677819
0.002299206
-0.007918373
0.002553183
-0.008989668
0.002964429
-0.009877281
0.002933437
-0.01049334
0.00257221
-0.01086588
0.002202146
-0.01104668
0.001839952
-0.01108762
0.001439496
-0.01105279
0.001051838
-0.01098534
0.0006908818
-0.01090832
0.0004022505
-0.01082305
0.0001861691
-0.01072359
2.684388e-05
-0.01060748
-9.190726e-05
-0.01046422
-0.0002065357
-0.01030082
-0.0002831914
-0.01011865
-0.0003479176
-0.009911583
-0.0004259311
-0.0096857
-0.0004873784
-0.009445492
-0.0005330701
-0.009203537
-0.0005445861
-0.008946433
-0.0005901915
-0.008690102
-0.0005922903
-0.008431645
-0.0006004417
-0.008160944
-0.0006349363
-0.007887622
-0.0006382538
-0.007791345
-0.0002237048
-0.007536212
-0.0006062735
-0.00729221
-0.0005862554
-0.007054343
-0.0005734061
-0.006815887
-0.0005776389
-0.006581111
-0.0005690993
-0.006344174
-0.0005715753
-0.006103957
-0.0005734566
-0.005853902
-0.0005891682
-0.005589132
-0.0006173482
-0.005303997
-0.0006630388
-0.005001943
-0.0007026633
-0.004690708
-0.0007240378
-0.004363041
-0.0007656512
-0.004024247
-0.0007943312
-0.003669662
-0.0008342409
-0.003294173
-0.0008878536
-0.002908546
-0.0009103359
-0.002511217
-0.0009335455
-0.002079736
-0.001020848
-0.001647854
-0.001023859
-0.001218901
-0.001012684
-0.0007506545
-0.001115075
-0.0002946
-0.001087706
0.0001305874
-0.001002648
0.0006081238
-0.001134931
0.001054043
-0.00106801
0.001459761
-0.0009742634
0.001725677
-0.0006206773
0.001843854
-0.000179288
0.001624015
0.0006893894
0.001511325
0.0002199438
0.0009545574
0.0008538945
-0.001198834
0.005684701
-0.0008641298
-0.001326835
0.0004713412
-0.003537616
0.00168141
-0.00277706
0.002773521
-0.002521783
0.003870877
-0.002709217
0.004837043
-0.002382386
0.005800731
-0.002364323
0.006750102
-0.002313608
0.007636391
-0.002124843
0.008350089
-0.001660974
0.008833735
-0.0010615
0.009022551
-0.0003088964
0.008989363
0.000369439
0.008741749
0.001330696
0.008263295
0.003028163
0.00689399
0.006335651
0.002612096
0.0105818
-0.002783737
0.008971838
-0.00498058
0.002510491
-0.004915767
-6.289434e-05
-0.004359097
-0.001338705
-0.003019869
-0.003935453
-0.001008598
-0.005095377
-0.0008698527
-0.0003898019
-0.003526798
0.006027941
-0.005460092
0.005617264
-0.00397275
-0.001600353
-0.001372639
-0.006222864
0.0005033946
-0.00493844
0.002364563
-0.004490711
0.004141009
-0.004439557
0.005644679
-0.003764204
0.006699139
-0.00260618
0.007195655
-0.001138402
0.007116611
0.0008898771
0.006412211
0.003716745
0.004001577
0.007203916
0.0001028625
0.007215791
-0.002771699
0.004541447
-0.003915336
0.003575371
-0.003584217
-5.682114e-05
-0.001948542
-0.004217328
-0.0006308749
-0.003445327
0.0002635953
-0.002210852
0.00109516
-0.002085775
0.001645211
-0.001195209
0.00206879
0.000137204
0.002721145
-0.003430292
-0.001097415
0.004589215
-0.01082436
0.02717249
-0.01160522
0.00184482
-0.01069023
-0.002634288
-0.0102994
-0.001020732
-0.009911121
-0.001058511
-0.009620071
-0.000794226
-0.009351034
-0.000734432
-0.009124735
-0.0006287694
-0.008730027
-0.0009962248
-0.008562385
-0.0004549053
-0.008411032
-0.0004004126
-0.008267243
-0.0003766873
-0.008134439
-0.0003435558
-0.008003615
-0.0003358545
-0.007878904
-0.0003200481
-0.007756039
-0.000311595
-0.007642184
-0.0002850176
-0.007530509
-0.0002734798
-0.007423691
-0.0002615694
-0.007316021
-0.0002614796
-0.007213929
-0.0002461405
-0.007112321
-0.0002418352
-0.007014493
-0.0002298172
-0.006920289
-0.0002163407
-0.006825562
-0.0002180346
-0.006732393
-0.0002151416
-0.006638525
-0.0002165491
-0.006548011
-0.0002064784
-0.006458665
-0.0001977252
-0.006372953
-0.0001864099
-0.006283311
-0.0001948662
-0.00619668
-0.0001892202
-0.006106104
-0.000198162
-0.006020104
-0.0001838489
-0.00593323
-0.000181695
-0.005845319
-0.0001851469
-0.005756301
-0.0001874615
-0.005666004
-0.0001903808
-0.00557657
-0.0001833339
-0.005485397
-0.0001816602
-0.005516158
0.0001016426
-0.005435379
-0.0001433073
-0.00535982
-0.00014579
-0.005281128
-0.0001504759
-0.00520552
-0.0001419949
-0.005126315
-0.0001486584
-0.005048843
-0.0001429338
-0.00496957
-0.0001437003
-0.004890286
-0.00014282
-0.004806765
-0.0001539833
-0.00472256
-0.0001555341
-0.004639065
-0.0001496183
-0.00455401
-0.000148501
-0.00446839
-0.0001458278
-0.004376722
-0.000160167
-0.004281604
-0.0001691711
-0.004185062
-0.0001689972
-0.004087411
-0.0001684613
-0.003982598
-0.0001835872
-0.003876958
-0.0001832066
-0.003763954
-0.0001985586
-0.003645513
-0.0002106098
-0.003520477
-0.0002224087
-0.003387777
-0.0002390771
-0.003231682
-0.000299741
-0.003061723
-0.0003382001
-0.00288477
-0.0003530119
-0.002675526
-0.0004240051
-0.002414354
-0.0005462074
-0.002041564
-0.0008401947
-0.001381311
-0.00139365
-0.0002570817
-0.002822138
0.0009792261
-0.003163043
0.001644425
-0.001391379
0.002032301
-0.0008943701
0.002333822
-0.0006536934
0.002572176
-0.0005014161
0.00278458
-0.0004419061
0.002969704
-0.0003696937
0.003124038
-0.0002897082
0.0032609
-0.00025405
0.003400264
-0.0002694139
0.003531759
-0.0002539708
0.00365726
-0.0002384542
0.003771746
-0.0002123393
0.003882199
-0.0002047612
0.003986712
-0.0001946459
0.004091354
-0.0001985239
0.004192263
-0.0001904093
0.004288318
-0.0001778142
0.004381391
-0.0001730093
0.004475217
-0.0001779472
0.004566206
-0.0001711023
0.004654201
-0.0001650078
0.004744338
-0.0001721491
0.004829187
-0.0001602199
0.004916871
-0.0001712681
0.00500546
-0.0001769805
0.005092116
-0.0001685186
0.00517431
-0.0001568259
0.005258383
-0.0001627023
0.005341353
-0.0001648686
0.005429801
-0.0001615797
0.005407498
8.640873e-05
0.00550469
-0.0001955933
0.005602695
-0.0002067953
0.005699168
-0.0002063416
0.005795256
-0.0002069152
0.005892213
-0.0002120412
0.005988908
-0.0002096298
0.00608196
-0.0002000648
0.006177542
-0.0002080219
0.006272907
-0.0002134591
0.006373447
-0.0002271912
0.006468834
-0.0002123081
0.006564992
-0.0002117301
0.006661221
-0.0002155535
0.006760635
-0.0002255388
0.006859425
-0.0002262265
0.006962496
-0.0002402482
0.007067551
-0.000246788
0.007172946
-0.0002485238
0.007282244
-0.0002577686
0.007387216
-0.0002471226
0.007501679
-0.0002754686
0.007615899
-0.0002795819
0.007735268
-0.0002927117
0.007857276
-0.0003040955
0.007983362
-0.0003151298
0.008114992
-0.0003353576
0.008255204
-0.000360822
0.008397534
-0.0003683457
0.008548596
-0.0003944902
0.008713286
-0.0004362388
0.008893984
-0.0004912748
0.009302276
-0.001037743
0.009544896
-0.0006746522
0.009831566
-0.0007831139
0.01015143
-0.0008703905
0.01057492
-0.001148582
0.01101097
-0.001106639
0.01199808
-0.002876778
0.001393618
0.00101524
0.0003049076
-0.00448319
0.001850029
-0.002226169
0.002328532
-0.001372873
0.002696153
-0.001021314
0.002993864
-0.0007991271
0.00325933
-0.0007073727
0.003490057
-0.0006004206
0.003684722
-0.0004843731
0.003857846
-0.0004271741
0.004032968
-0.0004445361
0.004197818
-0.0004188201
0.004355573
-0.0003962098
0.004500302
-0.000357068
0.004639621
-0.0003440803
0.004771654
-0.0003266784
0.004902913
-0.0003297838
0.005029967
-0.0003174633
0.005150434
-0.0002982809
0.005267464
-0.0002900394
0.005384715
-0.0002951976
0.005498387
-0.0002847747
0.005608181
-0.0002748014
0.005720518
-0.0002844869
0.005825854
-0.0002655554
0.005934533
-0.0002799472
0.006044187
-0.0002866348
0.006150877
-0.0002752085
0.006252819
-0.0002587677
0.00635637
-0.0002662531
0.006458509
-0.0002670075
0.006568063
-0.0002711337
0.006545941
0.0001085311
0.006662581
-0.0003122335
0.00678246
-0.0003266745
0.006899029
-0.0003229107
0.007015108
-0.0003229942
0.007132303
-0.000329236
0.007248767
-0.0003260944
0.007361021
-0.0003123187
0.007476002
-0.0003230028
0.007590745
-0.000328202
0.00771148
-0.000347926
0.007826047
-0.0003268746
0.007941489
-0.0003271727
0.008057274
-0.0003313387
0.008176465
-0.0003447297
0.008294904
-0.0003446649
0.008418622
-0.0003639663
0.008544417
-0.0003725836
0.008670765
-0.0003748714
0.00880193
-0.0003889339
0.008927371
-0.0003725637
0.009064997
-0.0004130946
0.009201447
-0.0004160311
0.009343937
-0.0004352016
0.009490054
-0.0004502126
0.009639892
-0.0004649686
0.009797338
-0.0004928036
0.009964083
-0.0005275661
0.01013323
-0.0005374978
0.01031279
-0.0005740471
0.01050874
-0.0006321868
0.01094787
-0.000930409
0.01121148
-0.001301347
0.01149811
-0.0009612855
0.0118402
-0.001125199
0.01223318
-0.001263376
0.01273955
-0.001654954
0.01334827
-0.001715359
0.01428032
-0.003808822
0.01405719
0.001616743
-0.01385927
0.01334981
0.00235428
-0.01300229
-0.003491273
-0.01246638
-0.00155664
-0.0120095
-0.00151539
-0.01165899
-0.001144736
-0.0113419
-0.001051524
-0.01107903
-0.0008916395
-0.01083303
-0.001242224
-0.01041445
-0.0008734797
-0.01023732
-0.0005775483
-0.01006838
-0.0005456186
-0.009912323
-0.0004996183
-0.00975822
-0.0004899566
-0.009610887
-0.000467381
-0.009465435
-0.0004570471
-0.009329755
-0.0004206981
-0.00919659
-0.0004066447
-0.009068578
-0.0003895818
-0.008939225
-0.000390832
-0.008816064
-0.0003693014
-0.008693323
-0.0003645765
-0.008574199
-0.0003489415
-0.008459524
-0.0003310157
-0.008343805
-0.0003337528
-0.00822986
-0.0003290865
-0.008115106
-0.000331304