/*--------------------------------*- C++ -*----------------------------------*\
| =========                 |                                                 |
| \\      /  F ield         | OpenFOAM: The Open Source CFD Toolbox           |
|  \\    /   O peration     | Version:  2406                                  |
|   \\  /    A nd           | Website:  www.openfoam.com                      |
|    \\/     M anipulation  |                                                 |
\*---------------------------------------------------------------------------*/
FoamFile
{
    version     2.0;
    format      ascii;
    arch        "LSB;label=32;scalar=64";
    class       volScalarField;
    location    "2.16";
    object      p;
}
// * * * * * * * * * * * * * * * * * * * * * * * * * * * * * * * * * * * * * //

dimensions      [0 2 -2 0 0 0 0];

internalField   nonuniform List<scalar> 
217010
(
-77.87051
-35.77337
-43.43713
-44.81829
-40.85691
-36.36951
-37.49283
-37.00192
-38.6948
-39.31627
-38.06199
-38.76369
-39.79181
-40.3244
-40.96835
-41.17606
-40.18556
-37.0863
-31.26813
-23.86737
-18.72496
-16.81938
-20.20967
-27.10263
-36.7513
-45.9996
-52.37028
-55.68603
-54.12946
-48.56933
-48.24132
-52.48948
-53.77373
-50.93817
-45.56902
-47.06982
-58.21802
-71.00935
-84.81686
-104.7653
-129.5955
-149.4291
-161.3851
-173.2394
-191.6078
-199.3806
-183.0582
-147.0906
-110.7645
-158.3905
-13.84347
-11.22007
-3.868993
-3.084329
-2.47651
-2.868997
-3.783185
-5.148432
-6.734182
-8.425135
-10.127
-12.01111
-14.16859
-16.31016
-18.5326
-20.952
-23.60453
-26.64467
-30.09114
-33.46677
-36.44223
-39.20361
-41.6919
-43.4193
-44.25094
-45.06501
-46.82637
-49.64404
-52.6694
-55.24759
-57.55754
-60.28791
-63.55422
-67.12177
-70.83907
-74.66531
-78.5329
-82.41914
-86.48076
-90.66916
-94.96582
-99.43777
-103.9621
-108.4835
-113.0624
-117.6301
-122.162
-126.6103
-130.9858
-135.2385
-139.2287
-142.9125
-146.1995
-149.0804
-151.4731
-153.3754
-154.7556
-155.4851
-155.5962
-155.0221
-153.6668
-151.3756
-148.2018
-144.1019
-139.3448
-134.6676
-129.9685
-133.751
-147.8603
-146.8955
-124.9571
-103.6147
-90.02743
-82.46971
-95.46147
-116.4599
-117.7735
-100.087
-87.83591
-81.93856
-78.81634
-78.37474
-78.94864
-79.30086
-76.71028
-69.39282
-66.52023
-69.95432
-72.41927
-74.03659
-80.89707
-90.93293
-104.6875
-119.9278
-132.5557
-139.3149
-138.925
-134.9629
-126.9217
-127.2241
-123.8317
-137.0751
-150.3713
-167.2926
-182.7628
-193.7627
-201.0684
-206.594
-208.7102
-204.7529
-192.4156
-172.9597
-158.887
-153.9537
-151.4425
-155.3629
-157.0476
-154.2879
-147.2025
-137.394
-135.3268
-145.4064
-160.5943
-178.1293
-190.8049
-194.9376
-192.9899
-188.3686
-186.4269
-188.2254
-189.9054
-190.5805
-190.3381
-189.9424
-189.1703
-185.4803
-180.689
-176.9457
-174.2148
-172.9115
-172.9275
-172.8784
-171.9806
-172.8455
-167.7962
-170.7934
-174.013
-176.3005
-168.82
-259.0844
-139.64
-121.9995
-103.1782
-92.17531
-82.93877
-75.38121
-68.92714
-63.14377
-58.13105
-53.62773
-49.56099
-45.86626
-42.40416
-39.15022
-36.11946
-33.32812
-30.73065
-28.2456
-25.87998
-23.62978
-21.48876
-19.46602
-17.55728
-15.6922
-13.8788
-12.11168
-10.42445
-8.835825
-7.307035
-5.807229
-4.331932
-2.890058
-1.520103
-0.1947678
1.113476
2.391567
3.653194
4.897403
6.137527
7.311635
8.513997
9.650302
10.77552
11.87845
12.97255
14.04067
15.08477
16.12648
17.18233
18.22972
19.24834
20.24468
21.23218
22.23542
23.2412
24.23401
25.22229
26.21279
27.20143
28.19342
29.18259
30.16791
31.17086
32.23635
33.33781
34.18057
33.9946
32.32368
29.92868
30.11696
24.29954
55.99196
54.30507
55.02178
54.47084
53.90078
53.30272
52.6347
51.96724
51.34508
50.72647
50.05097
49.35635
48.67724
48.02219
47.37257
46.7191
46.05733
45.39382
44.74714
44.10568
43.45165
42.79661
42.1506
41.493
40.84082
40.17466
39.4818
38.80247
38.14042
37.4744
36.7893
36.07251
35.38377
34.66857
33.9346
33.20024
32.46306
31.69895
30.92336
30.14878
29.35838
28.52929
27.66487
26.80086
25.94264
25.05476
24.12689
23.17262
22.17975
21.15129
20.09653
19.00763
17.90549
16.735
15.49235
14.20923
12.85496
11.44221
9.931093
8.306375
6.593153
4.769781
2.754772
0.5554272
-1.934241
-4.648465
-7.734925
-11.47623
-15.6369
-22.76204
-27.01387
54.91473
54.31763
55.01618
54.53193
53.97219
53.37513
52.70875
52.03693
51.40896
50.78924
50.11483
49.41808
48.73478
48.07599
47.42383
46.76836
46.10456
45.4384
44.78911
44.14557
43.48975
42.8327
42.1848
41.52535
40.87157
40.20423
39.51006
38.82873
38.16454
37.49721
36.81116
36.09246
35.40326
34.68601
33.95065
33.21508
32.47676
31.71135
30.93465
30.15888
29.36741
28.53692
27.67108
26.80591
25.94667
25.05733
24.12819
23.17281
22.17834
21.14803
20.0914
19.00057
17.89718
16.72342
15.47788
14.19223
12.8342
11.41843
9.902133
8.271908
6.554038
4.72448
2.701962
0.4942841
-2.01517
-4.74231
-7.851508
-11.61745
-15.86236
-22.95731
-28.29688
-142.4053
-122.5815
-103.7652
-92.53162
-83.22441
-75.60494
-69.11218
-63.28217
-58.2494
-53.72905
-49.64507
-45.93835
-42.46588
-39.20174
-36.16121
-33.36158
-30.75887
-28.26842
-25.89751
-23.6427
-21.49766
-19.47063
-17.55942
-15.692
-13.87616
-12.10653
-10.41646
-8.825872
-7.295122
-5.793217
-4.31576
-2.871731
-1.49975
-0.172807
1.137563
2.417546
3.681457
4.927989
6.170597
7.347056
8.551041
9.689087
10.81638
11.92171
13.01766
14.08781
15.13438
16.17932
17.23793
18.28734
19.30799
20.30679
21.29756
22.30438
23.31325
24.30894
25.30087
26.2948
27.28745
28.28321
29.27607
30.26586
31.27593
32.3474
33.4327
34.19976
33.89389
32.08143
29.74692
29.68565
28.20474
-123.3555
-135.6135
-148.7296
-165.5069
-181.2455
-192.6724
-200.3069
-206.1195
-208.7055
-205.3391
-193.6649
-174.2823
-159.5922
-154.207
-151.4474
-155.2498
-157.0794
-154.5907
-147.6949
-137.6464
-135.3176
-145.1858
-160.2556
-177.8173
-190.6504
-194.983
-193.0707
-188.3923
-186.3933
-188.207
-189.9022
-190.6026
-190.3477
-189.9728
-189.2024
-185.4901
-180.667
-176.9177
-174.179
-172.8921
-172.9236
-172.8728
-171.9767
-172.8108
-167.8128
-170.9055
-174.155
-176.214
-171.0526
-241.2777
-19.34359
-11.68877
-4.376
-3.16708
-2.494275
-2.810748
-3.673274
-5.003617
-6.574146
-8.263061
-9.961996
-11.83394
-13.98516
-16.12906
-18.34875
-20.75433
-23.3929
-26.40013
-29.85236
-33.26006
-36.25878
-39.04305
-41.57967
-43.35346
-44.21249
-45.00331
-46.71653
-49.51602
-52.55138
-55.16068
-57.47202
-60.19118
-63.44919
-67.01301
-70.74503
-74.57313
-78.4474
-82.33869
-86.40532
-90.5981
-94.89983
-99.3783
-103.9089
-108.437
-113.0234
-117.598
-122.1374
-126.5923
-130.9753
-135.2352
-139.2312
-142.9206
-146.2133
-149.0997
-151.4919
-153.3963
-154.7756
-155.5009
-155.6088
-155.0297
-153.6675
-151.3648
-148.1832
-144.0674
-139.2734
-134.5327
-129.89
-133.9165
-148.0291
-146.5585
-124.3606
-103.2086
-89.92819
-82.73709
-96.58553
-117.0719
-117.4636
-99.4825
-87.46406
-81.75844
-78.74487
-78.40439
-79.00663
-79.27407
-76.36127
-69.03588
-66.54698
-70.2046
-72.63736
-74.40709
-81.63642
-92.04151
-106.1599
-121.4965
-133.8634
-139.9682
-138.904
-134.2565
-126.3924
-126.7884
-71.43718
-36.68225
-43.28501
-44.92494
-41.04641
-36.43802
-37.48901
-36.99694
-38.68392
-39.33096
-38.06543
-38.75135
-39.78515
-40.32246
-40.96998
-41.18499
-40.20089
-37.09649
-31.26416
-23.8578
-18.73126
-16.85053
-20.29715
-27.24258
-36.97248
-46.32477
-52.63416
-55.78809
-54.01902
-48.46518
-48.27581
-52.57004
-53.75659
-50.80749
-45.56116
-47.37984
-58.8961
-71.79682
-85.88308
-106.3743
-131.5541
-150.8833
-162.4198
-174.6023
-193.7267
-200.3639
-180.572
-143.2704
-111.4006
-138.7865
-63.97178
-37.01461
-43.02451
-45.03381
-41.24305
-36.51954
-37.48829
-37.00002
-38.69281
-39.36726
-38.07783
-38.74443
-39.78198
-40.32259
-40.97954
-41.21264
-40.24212
-37.14261
-31.30573
-23.88797
-18.78488
-16.9342
-20.43839
-27.41042
-37.17797
-46.56911
-53.02188
-56.0378
-53.97197
-48.36891
-48.35375
-52.74523
-53.83612
-50.72232
-45.62367
-47.73156
-59.37882
-72.34127
-86.71421
-107.4457
-132.3298
-151.3119
-162.396
-175.4096
-194.702
-201.4728
-178.4437
-140.4903
-110.6418
-125.829
-22.24275
-12.37334
-4.708998
-3.27693
-2.527458
-2.78969
-3.626976
-4.945056
-6.512709
-8.206193
-9.901034
-11.76872
-13.92882
-16.0702
-18.2989
-20.71811
-23.35688
-26.34278
-29.78904
-33.21287
-36.2341
-39.02153
-41.54209
-43.31929
-44.19462
-44.9779
-46.69199
-49.48995
-52.5512
-55.12638
-57.4382
-60.15461
-63.4126
-66.9877
-70.70766
-74.53845
-78.41804
-82.30914
-86.38166
-90.57585
-94.87936
-99.36402
-103.8973
-108.4282
-113.02
-117.5973
-122.1412
-126.5981
-130.9858
-135.2499
-139.2474
-142.9407
-146.2339
-149.1221
-151.5109
-153.4177
-154.7981
-155.5185
-155.6274
-155.0484
-153.6884
-151.3945
-148.2567
-144.2118
-139.4814
-134.7204
-130.1097
-134.2912
-148.4833
-146.8229
-124.0202
-102.8768
-89.83681
-82.9151
-98.00956
-118.6341
-118.1103
-99.21462
-87.29125
-81.68189
-78.73262
-78.45495
-79.08522
-79.27583
-76.10587
-68.76775
-66.6218
-70.59478
-72.92742
-74.79161
-82.27511
-92.93397
-107.1553
-122.2603
-134.1152
-140.0251
-138.7378
-133.7919
-126.1119
-126.7022
-123.0656
-134.8247
-147.8751
-164.8341
-180.8386
-192.5469
-200.318
-206.3291
-209.0966
-206.1498
-195.4168
-176.27
-160.4041
-154.4657
-151.4833
-155.1587
-157.1309
-154.9615
-147.9658
-138.0092
-135.4261
-145.1246
-160.1417
-177.8047
-190.8443
-195.1889
-193.3249
-188.4723
-186.3864
-188.1936
-189.9487
-190.6723
-190.3821
-190.105
-189.305
-185.536
-180.6597
-176.8994
-174.1654
-172.8805
-172.9252
-172.8865
-171.9821
-172.8291
-167.8773
-171.0548
-174.2117
-176.0945
-171.8601
-222.8538
-141.9704
-122.9544
-104.0414
-92.71749
-83.36333
-75.71033
-69.19094
-63.36426
-58.29801
-53.77331
-49.68063
-45.96965
-42.4944
-39.22533
-36.1805
-33.37604
-30.77362
-28.28077
-25.90766
-23.65064
-21.50443
-19.47412
-17.56331
-15.69448
-13.87715
-12.10601
-10.41336
-8.822847
-7.292202
-5.78975
-4.311549
-2.865516
-1.492767
-0.1670774
1.144434
2.424653
3.690725
4.938278
6.179808
7.353827
8.559116
9.698848
10.82736
11.93252
13.02944
14.09998
15.14623
16.19081
17.25132
18.30267
19.32307
20.32195
21.31223
22.32047
23.33148
24.32785
25.32013
26.31588
27.30932
28.30627
29.29966
30.29011
31.30263
32.37925
33.46185
34.18817
33.78615
31.92119
29.69556
29.63564
29.86958
54.29548
54.25355
54.98681
54.56007
53.99733
53.39964
52.73015
52.05555
51.42791
50.80995
50.13328
49.43515
48.7498
48.09033
47.43751
46.78201
46.11708
45.44919
44.80011
44.15659
43.49952
42.84209
42.19454
41.53352
40.88143
40.21335
39.51633
38.83505
38.17133
37.50408
36.81578
36.09839
35.40885
34.69313
33.95592
33.22001
32.48167
31.71461
30.93776
30.16257
29.37143
28.53952
27.6721
26.80687
25.94844
25.05807
24.12837
23.17266
22.17666
21.14533
20.08779
18.99628
17.89393
16.71781
15.47086
14.18532
12.82471
11.40935
9.889716
8.257378
6.538636
4.707249
2.681706
0.457583
-2.044936
-4.782748
-7.902771
-11.68563
-15.95788
-23.09132
-28.31783
53.42441
54.16536
54.94905
54.60572
54.05653
53.46642
52.80036
52.12585
51.4957
50.87672
50.19933
49.50079
48.81263
48.15026
47.49487
46.83726
46.17031
45.49973
44.84893
44.20267
43.543
42.88383
42.23454
41.57071
40.91819
40.24774
39.5476
38.86622
38.2005
37.53177
36.8413
36.12869
35.42866
34.71436
33.97431
33.23781
32.4988
31.72875
30.95127
30.17551
29.3837
28.54884
27.67904
26.81329
25.95523
25.06233
24.13137
23.17484
22.17611
21.14321
20.08391
18.99037
17.8891
16.70759
15.4574
14.17117
12.8048
11.38897
9.862108
8.22405
6.502029
4.665517
2.62869
0.3978209
-2.113187
-4.86988
-8.011475
-11.81271
-16.16154
-23.20399
-28.51165
-142.103
-123.2816
-104.5477
-93.03263
-83.63201
-75.91524
-69.35273
-63.49547
-58.41434
-53.86895
-49.75746
-46.03675
-42.55249
-39.27226
-36.21788
-33.40272
-30.79832
-28.29935
-25.92107
-23.6592
-21.51026
-19.47365
-17.56359
-15.69185
-13.87146
-12.09754
-10.39947
-8.807646
-7.276003
-5.772312
-4.292162
-2.841966
-1.465923
-0.1410755
1.173467
2.455013
3.725487
4.975138
6.213482
7.408411
8.60356
9.744915
10.87638
11.98398
13.08276
14.15676
15.2056
16.25266
17.31556
18.37025
19.39293
20.39481
21.38777
22.39862
23.41393
24.413
25.40823
26.40699
27.40409
28.40357
29.39872
30.38949
31.40111
32.46794
33.50651
34.14051
33.60952
31.65698
29.52654
29.65627
31.81093
-122.7387
-133.7698
-146.5376
-163.3222
-179.3622
-191.3824
-199.4664
-205.7352
-208.874
-206.855
-197.4488
-179.1993
-161.887
-154.9087
-151.3687
-154.8336
-157.1693
-155.509
-148.6471
-138.5794
-135.6727
-145.1657
-160.0867
-177.813
-190.8623
-195.473
-193.739
-188.7048
-186.4418
-188.2116
-190.0756
-190.688
-190.3179
-190.3277
-189.4612
-185.6021
-180.662
-176.8783
-174.1322
-172.8623
-172.9136
-172.8838
-171.9867
-172.8272
-167.9695
-171.2848
-174.3067
-175.9016
-174.0074
-210.5052
-26.01995
-13.25919
-5.286845
-3.441335
-2.588693
-2.769033
-3.55291
-4.831253
-6.375222
-8.062892
-9.746707
-11.60536
-13.76496
-15.8952
-18.12017
-20.52419
-23.12874
-26.0829
-29.54452
-33.02265
-36.12265
-38.93655
-41.44069
-43.21843
-44.12007
-44.89231
-46.51932
-49.3325
-52.37184
-55.0444
-57.35941
-60.06232
-63.30678
-66.86649
-70.60349
-74.43976
-78.32918
-82.2243
-86.30899
-90.50598
-94.8149
-99.31021
-103.8461
-108.3824
-112.9852
-117.5676
-122.1199
-126.5814
-130.9803
-135.2543
-139.2561
-142.9577
-146.2536
-149.1489
-151.5377
-153.4511
-154.8345
-155.5476
-155.6602
-155.0812
-153.7246
-151.4384
-148.356
-144.4107
-139.8451
-135.2906
-131.0226
-135.1774
-148.5781
-146.0889
-123.3531
-102.3737
-89.40176
-82.76888
-99.74284
-121.1191
-118.6969
-98.89426
-87.13528
-81.60305
-78.73957
-78.52887
-79.19189
-79.34464
-75.85683
-68.50796
-66.90903
-71.17375
-73.37631
-75.35211
-83.19592
-94.26084
-108.8009
-123.9251
-135.6521
-140.8167
-138.7969
-133.463
-125.7199
-126.4991
-57.95273
-37.99367
-42.58153
-45.17888
-41.60836
-36.62656
-37.48349
-37.00795
-38.71606
-39.41527
-38.10813
-38.73431
-39.78126
-40.3262
-41.00189
-41.27003
-40.32458
-37.23621
-31.40383
-23.97695
-18.91395
-17.10432
-20.68302
-27.68459
-37.53386
-47.0105
-53.56928
-56.50492
-54.11747
-48.37212
-48.51616
-52.98055
-53.79526
-50.47383
-45.67316
-48.22882
-60.16391
-73.15876
-87.9368
-109.1989
-134.44
-152.828
-163.4086
-177.0125
-197.8414
-203.3893
-176.5159
-135.2487
-109.817
-118.0234
-53.52217
-38.91757
-42.13766
-45.41749
-42.11268
-36.76805
-37.47157
-37.03398
-38.76581
-39.46992
-38.16328
-38.72407
-39.78321
-40.33448
-41.0427
-41.37552
-40.48194
-37.42333
-31.60304
-24.1715
-19.15333
-17.38225
-21.05809
-28.09528
-38.05315
-47.57599
-54.26423
-57.18873
-54.58099
-48.68795
-48.87423
-53.31035
-53.70353
-50.11241
-45.75292
-48.89542
-61.11602
-74.0211
-89.3611
-111.2608
-136.5246
-153.6526
-164.0007
-178.7771
-200.3944
-205.3341
-173.6365
-130.1717
-108.9016
-109.8197
-29.48605
-14.37451
-5.97145
-3.684042
-2.68944
-2.769435
-3.496828
-4.736776
-6.26014
-7.950027
-9.623306
-11.46762
-13.64227
-15.75858
-17.98894
-20.39895
-22.99429
-25.91518
-29.39629
-32.89382
-36.01548
-38.88049
-41.37852
-43.14259
-44.05779
-44.83303
-46.45975
-49.24505
-52.37567
-54.97559
-57.29028
-59.98229
-63.21863
-66.79243
-70.53037
-74.36645
-78.26298
-82.15407
-86.25614
-90.45165
-94.76586
-99.28248
-103.8197
-108.3582
-112.9758
-117.5638
-122.1268
-126.588
-130.9992
-135.2872
-139.2941
-143.0065
-146.3024
-149.2066
-151.5899
-153.5105
-154.8968
-155.5973
-155.7162
-155.1364
-153.785
-151.5027
-148.4846
-144.6335
-140.2467
-136.03
-132.4665
-136.2655
-147.5086
-144.0365
-122.2538
-101.9247
-88.69947
-82.22777
-101.8752
-124.5047
-119.6484
-98.61891
-87.06786
-81.52578
-78.74258
-78.58855
-79.28358
-79.49871
-75.7355
-68.43482
-67.65979
-72.07675
-73.9964
-76.12398
-84.40815
-95.96929
-110.8137
-125.7599
-136.7574
-141.1566
-138.6779
-132.9936
-125.2872
-126.3283
-122.5479
-132.739
-145.2131
-161.9074
-178.2528
-190.7548
-199.1139
-205.8172
-209.6032
-207.9269
-199.8199
-183.175
-164.7183
-155.645
-151.0387
-154.2416
-157.1282
-156.1997
-149.5384
-139.4
-136.1427
-145.4225
-160.2137
-178.0668
-191.3001
-196.0053
-194.4108
-189.205
-186.6514
-188.3096
-190.2682
-190.6206
-190.0592
-190.4857
-189.6429
-185.6834
-180.6857
-176.8672
-174.1237
-172.8577
-172.8762
-172.9046
-172.0136
-172.8085
-168.0993
-171.5947
-174.49
-175.7598
-176.2893
-201.93
-142.0386
-123.4242
-104.9787
-93.31471
-83.88228
-76.1059
-69.50885
-63.62857
-58.50893
-53.95649
-49.82759
-46.10003
-42.61076
-39.32077
-36.25606
-33.42728
-30.82592
-28.32266
-25.93996
-23.67298
-21.52169
-19.47643
-17.57038
-15.69605
-13.87362
-12.09785
-10.39232
-8.801001
-7.271194
-5.766325
-4.283832
-2.828439
-1.450344
-0.1293365
1.188961
2.470704
3.745726
4.994998
6.228179
7.420266
8.625157
9.767602
10.90109
12.00858
13.10918
14.18539
15.2341
16.28038
17.3468
18.40643
19.42936
20.43219
21.42488
22.43894
23.45983
24.46009
25.45709
26.46083
27.4607
28.46234
29.45875
30.45076
31.46564
32.53241
33.52794
34.05048
33.39733
31.4582
29.63113
30.05808
34.29404
52.54192
54.00669
54.88222
54.63539
54.10286
53.51852
52.85023
52.17294
51.54243
50.9266
50.24594
49.54508
48.85119
48.18641
47.52917
46.87097
46.2012
45.52634
44.87581
44.2292
43.5667
42.90633
42.2575
41.58946
40.94036
40.2682
39.56242
38.88113
38.21474
37.54659
36.85367
36.13486
35.44058
34.72798
33.98394
33.24719
32.50827
31.73485
30.95799
30.18328
29.39164
28.55291
27.68006
26.81532
25.95914
25.06292
24.13126
23.17482
22.17247
21.13795
20.07704
18.98186
17.88461
16.69537
15.44176
14.15641
12.78378
11.37102
9.835156
8.192112
6.469964
4.630865
2.584303
0.3368662
-2.176441
-4.948503
-8.109178
-11.9281
-16.33351
-23.2425
-28.63183
51.59204
53.74475
54.75837
54.63833
54.15044
53.58198
52.91248
52.23822
51.61156
50.99971
50.3145
49.61684
48.92013
48.25324
47.59266
46.93531
46.26378
45.58325
44.93186
44.283
43.61654
42.95467
42.30606
41.6316
40.98655
40.31213
39.59885
38.91919
38.25077
37.58153
36.88387
36.17584
35.46937
34.75702
34.00878
33.27209
32.53118
31.74988
30.97251
30.1997
29.41093
28.56621
27.68561
26.82136
25.97039
25.06868
24.13521
23.1803
22.17273
21.13488
20.06944
18.97112
17.88404
16.68431
15.42649
14.14031
12.75729
11.35231
9.801959
8.150904
6.427035
4.588061
2.528043
0.2612173
-2.255534
-5.044119
-8.228034
-12.05941
-16.51352
-23.2368
-28.75075
-141.9665
-123.386
-105.3904
-93.59909
-84.18004
-76.33683
-69.69638
-63.7843
-58.62418
-54.07114
-49.913
-46.17459
-42.68356
-39.37647
-36.29326
-33.44763
-30.86002
-28.35031
-25.95887
-23.68141
-21.52647
-19.47
-17.57184
-15.69268
-13.86782
-12.08536
-10.36669
-8.780215
-7.251141
-5.739596
-4.25471
-2.796204
-1.414496
-0.09809015
1.226876
2.507692
3.789154
5.039141
6.276548
7.496125
8.682271
9.824264
10.96242
12.07266
13.17726
14.25657
15.30464
16.35363
17.4274
18.49378
19.51471
20.51982
21.51267
22.53015
23.55818
24.55953
25.56003
26.56606
27.56561
28.56722
29.56082
30.54646
31.55136
32.60079
33.52551
33.91116
33.16698
31.3953
30.13908
31.08739
36.89421
-122.5618
-131.6882
-143.6409
-160.2347
-176.7817
-189.8187
-198.4311
-205.4594
-209.5247
-208.8332
-202.261
-187.9095
-169.1999
-157.0316
-150.6713
-153.4115
-157.022
-157.0148
-150.6937
-140.6245
-136.9744
-146.1365
-160.6588
-178.6543
-192.0521
-196.8328
-195.4591
-190.092
-187.1412
-188.5411
-190.5659
-190.5823
-189.7862
-190.5222
-189.7496
-185.7576
-180.7294
-176.8843
-174.1423
-172.8746
-172.7985
-172.8565
-172.0679
-172.7162
-168.3829
-172.0914
-174.6245
-175.312
-177.5043
-193.1472
-32.92302
-15.8543
-6.853982
-4.048341
-2.86454
-2.809637
-3.459635
-4.64503
-6.13304
-7.817465
-9.477949
-11.30147
-13.49319
-15.58603
-17.81469
-20.21339
-22.78236
-25.64483
-29.12998
-32.6504
-35.80443
-38.80269
-41.3239
-43.09213
-44.0086
-44.74996
-46.31587
-49.06688
-52.1866
-54.87375
-57.20785
-59.89238
-63.10962
-66.65396
-70.40081
-74.24612
-78.16611
-82.05127
-86.18509
-90.37791
-94.68218
-99.22998
-103.7808
-108.317
-112.9505
-117.5447
-122.1303
-126.593
-131.0117
-135.3115
-139.3266
-143.0576
-146.3537
-149.2763
-151.6499
-153.5823
-154.9661
-155.6591
-155.7959
-155.2171
-153.8779
-151.5975
-148.6708
-144.9147
-140.7157
-136.8503
-133.9684
-136.9096
-144.974
-140.3517
-120.8588
-101.7482
-88.07581
-82.00195
-104.825
-128.7067
-120.7951
-98.33304
-86.99481
-81.42185
-78.69311
-78.57058
-79.24861
-79.77313
-75.9326
-68.79549
-69.10347
-73.41684
-74.8469
-77.31206
-86.12976
-98.32563
-113.4425
-128.0526
-138.4809
-142.0023
-138.6277
-132.4521
-124.9577
-126.3303
-49.70742
-39.53575
-41.80999
-45.82531
-42.72833
-36.94598
-37.46264
-37.09533
-38.80057
-39.49607
-38.24329
-38.71608
-39.79158
-40.35172
-41.11044
-41.55682
-40.75881
-37.75377
-31.9666
-24.53104
-19.54085
-17.77163
-21.65224
-28.67519
-38.80987
-48.35448
-55.19074
-58.13951
-55.42111
-49.51968
-49.59072
-53.80206
-53.66882
-49.71093
-46.00072
-49.90288
-62.29153
-74.83861
-90.96206
-113.6987
-139.2102
-155.6417
-165.1541
-181.2404
-204.5155
-207.2383
-169.3193
-125.841
-107.9937
-100.6431
-46.03546
-39.7664
-41.79499
-46.31084
-43.49993
-37.09439
-37.45005
-37.20108
-38.73984
-39.41889
-38.33528
-38.70472
-39.79993
-40.38493
-41.22431
-41.85756
-41.20244
-38.29509
-32.63058
-25.14267
-20.18538
-18.44752
-22.69934
-29.47044
-39.97767
-49.4881
-56.42651
-59.41798
-56.66786
-51.03292
-50.76968
-54.38869
-53.48603
-49.13322
-46.36029
-51.23795
-63.96722
-75.84879
-92.90947
-116.4891
-142.0881
-156.4377
-166.266
-185.1541
-208.9676
-208.6043
-164.0538
-123.087
-106.9603
-92.16184
-37.18229
-18.3861
-8.110638
-4.658124
-3.191542
-2.926755
-3.442081
-4.555224
-5.990942
-7.663378
-9.285543
-11.13634
-13.32817
-15.396
-17.6327
-20.00924
-22.54529
-25.37706
-28.91946
-32.44963
-35.63495
-38.73139
-41.27938
-43.06579
-43.99604
-44.71555
-46.21318
-48.9003
-52.05878
-54.77418
-57.1177
-59.78263
-63.01567
-66.54893
-70.27704
-74.12329
-78.06764
-81.95491
-86.12148
-90.33702
-94.63759
-99.16337
-103.7557
-108.3122
-112.9485
-117.5437
-122.15
-126.6503
-131.1011
-135.3867
-139.4035
-143.1583
-146.4419
-149.3971
-151.7532
-153.7259
-155.1267
-155.7721
-155.9379
-155.354
-154.0347
-151.7308
-148.9385
-145.2833
-141.2688
-137.7618
-135.3854
-137.1323
-142.1383
-136.6895
-119.616
-102.2302
-88.53643
-82.88131
-108.8753
-133.2796
-121.7913
-98.11114
-86.63614
-81.23215
-78.59821
-78.50081
-79.3153
-80.32361
-76.57994
-69.98001
-71.34121
-75.34743
-76.4189
-79.49466
-88.69261
-101.7413
-117.104
-131.0259
-140.5355
-142.9214
-138.554
-131.9541
-124.8771
-126.5328
-122.8284
-130.5819
-141.6761
-158.1859
-174.7845
-188.488
-197.7038
-205.2839
-210.0532
-210.1879
-204.9164
-193.0666
-174.8711
-159.9655
-150.6858
-152.9472
-156.9314
-157.9207
-152.1707
-142.5078
-138.4366
-147.661
-161.7294
-179.7226
-193.2276
-198.1102
-197.1092
-191.523
-188.0472
-188.9308
-190.9197
-190.6607
-189.6022
-190.4797
-189.8618
-185.8122
-180.7518
-176.9594
-174.2192
-172.945
-172.6603
-172.7541
-172.1713
-172.6948
-168.8532
-173.234
-175.3285
-174.5514
-176.9764
-183.5446
-141.5702
-123.0507
-105.7197
-93.84549
-84.52861
-76.57358
-69.86444
-63.93912
-58.76474
-54.20413
-49.98289
-46.25488
-42.77227
-39.42745
-36.32996
-33.48595
-30.91813
-28.3781
-25.97363
-23.6812
-21.53411
-19.47316
-17.5787
-15.69689
-13.86933
-12.06844
-10.35285
-8.775639
-7.235574
-5.723077
-4.253461
-2.791509
-1.387001
-0.0808704
1.251142
2.528242
3.820613
5.074259
6.312658
7.514997
8.707719
9.856069
11.0043
12.11565
13.21827
14.2971
15.35286
16.40659
17.47751
18.5432
19.56607
20.57972
21.57307
22.59291
23.6298
24.63853
25.63689
26.64378
27.65329
28.66209
29.65624
30.64119
31.63638
32.6639
33.48766
33.71188
32.92745
31.48075
30.85819
32.69333
39.32568
50.56218
53.28295
54.49761
54.57001
54.17658
53.65144
52.97817
52.30324
51.68261
51.07667
50.3755
49.67739
48.97705
48.31281
47.64391
46.98368
46.3111
45.62829
44.98052
44.32663
43.65371
42.99123
42.34294
41.65904
41.02162
40.33731
39.61723
38.94128
38.27394
37.60889
36.9028
36.18176
35.47984
34.76708
34.01599
33.28924
32.55274
31.76216
30.98265
30.20515
29.4218
28.57877
27.69041
26.81774
25.9752
25.07162
24.13217
23.17945
22.17127
21.13352
20.06085
18.94762
17.87509
16.66313
15.41234
14.12451
12.72056
11.33474
9.764349
8.112852
6.377654
4.539497
2.470259
0.1880689
-2.332585
-5.138636
-8.347088
-12.18113
-16.65848
-23.11762
-28.75945
49.59369
52.68264
54.10356
54.40758
54.1591
53.73062
53.06777
52.38408
51.78827
51.21859
50.51697
49.79031
49.06352
48.41029
47.7574
47.08089
46.38358
45.68592
45.05992
44.40604
43.7182
43.06109
42.41916
41.7082
41.12481
40.40415
39.66149
38.99714
38.30671
37.66567
36.94886
36.24733
35.56145
34.81792
34.02512
33.30257
32.57485
31.78566
31.02497
30.23701
29.42164
28.58154
27.7226
26.83901
25.97652
25.08781
24.14525
23.16392
22.15831
21.13388
20.08459
18.95405
17.86912
16.61036
15.38684
14.12246
12.66255
11.31171
9.68689
8.081182
6.334616
4.436135
2.358916
0.06749092
-2.455817
-5.285276
-8.538014
-12.38166
-16.88328
-22.95487
-28.73198
-140.6857
-122.6369
-106.2933
-94.27698
-85.10468
-76.78406
-70.10259
-64.23209
-59.03396
-54.31966
-50.03157
-46.40574
-42.88461
-39.46984
-36.42418
-33.57953
-30.93192
-28.34608
-25.98196
-23.688
-21.58688
-19.50347
-17.5487
-15.72424
-13.84768
-12.03956
-10.38461
-8.732825
-7.180289
-5.713057
-4.256923
-2.714829
-1.265748
-0.04011001
1.312729
2.583027
3.899432
5.147239
6.373363
7.569148
8.801438
9.966469
11.10402
12.20801
13.29403
14.40938
15.48227
16.50314
17.54935
18.67015
19.72384
20.72095
21.70796
22.70873
23.78193
24.80006
25.75648
26.80393
27.83529
28.81618
29.79327
30.76382
31.72986
32.72885
33.4156
33.50413
32.84384
31.92175
32.32368
35.04869
41.39957
-123.4396
-129.6302
-139.8633
-155.6396
-172.4652
-186.187
-196.4675
-205.0191
-210.4087
-211.4875
-207.6561
-198.8113
-181.9556
-165.4764
-151.4091
-153.462
-157.0007
-158.9513
-153.9788
-144.7774
-140.8675
-149.7036
-163.8823
-181.7575
-194.8176
-199.6398
-199.3794
-193.6095
-189.5423
-189.4058
-191.186
-190.7395
-189.622
-190.486
-190.027
-185.8897
-180.7433
-177.0326
-174.3961
-173.0598
-172.3585
-172.4674
-172.23
-172.0931
-168.2428
-174.7596
-175.8051
-173.5048
-174.5439
-174.1768
-41.84423
-21.70813
-10.01622
-5.583608
-3.701109
-3.145294
-3.450816
-4.478695
-5.837656
-7.496603
-8.972435
-10.95048
-13.11134
-15.11672
-17.41651
-19.74205
-22.11688
-24.90904
-28.60984
-32.14833
-35.28714
-38.44795
-41.17805
-43.01282
-44.0059
-44.74508
-46.17189
-48.70994
-51.71439
-54.46665
-56.92056
-59.55266
-62.83494
-66.4217
-70.11921
-73.92834
-77.79093
-81.7298
-85.9244
-90.13102
-94.69419
-99.05842
-103.5835
-108.3182
-112.9399
-117.5283
-122.0519
-126.5389
-131.2296
-135.4992
-139.5064
-143.3249
-146.5516
-149.5607
-151.8377
-153.8879
-155.2687
-155.9068
-156.1508
-155.5458
-154.3093
-151.9492
-149.2718
-145.8376
-142.0238
-138.6907
-136.629
-137.2727
-139.7108
-133.5764
-117.8212
-102.7416
-90.08853
-85.87036
-114.1217
-137.7911
-121.5596
-97.68114
-86.22206
-80.69271
-78.3844
-78.34772
-79.21261
-80.86219
-77.8558
-72.77189
-74.63937
-78.31719
-79.15541
-82.95042
-92.18919
-106.1332
-122.1066
-135.0705
-143.2369
-143.8502
-138.3126
-131.5026
-125.2029
-126.951
-42.68353
-39.35843
-42.23277
-47.12754
-45.26492
-36.84202
-37.16152
-37.28308
-38.50776
-39.164
-38.37013
-38.69176
-39.83141
-40.45399
-41.39489
-42.32151
-41.91154
-39.27536
-33.83284
-26.17111
-21.32345
-19.97292
-24.22275
-30.94465
-41.60576
-51.26268
-58.12181
-61.1909
-58.34538
-53.07774
-52.23458
-54.78671
-52.79724
-48.08199
-46.13562
-52.10549
-65.67407
-77.9335
-95.69319
-119.5087
-144.5849
-159.4398
-171.1373
-192.2621
-215.847
-208.7815
-157.1552
-121.5908
-105.1022
-85.1537
-0.359374
-0.08454247
6.577388
6.537741
-2.719728
-2.577081
2.064636
8.002856
-0.2563135
3.096593
-15.67748
-0.2304942
-0.1323381
-7.512275
1.953233
8.689561
7.090825
-2.713946
2.503071
-13.39078
-1.76313
2.196426
2.210663
2.555104
-1.027351
6.720095
2.235239
6.044654
6.413512
-2.602055
-5.05854
-1.892321
-12.6932
-1.53037
3.399849
-11.07947
1.983343
5.800699
-0.2760856
5.821156
4.690251
-0.09867086
-2.227979
-3.212585
1.763801
-144.1927
-0.4116542
-0.1115701
-0.234841
4.529009
-0.5307502
-2.145307
-1.115274
-7.113935
4.770946
0.909527
-1.895631
-4.730865
-5.78295
-0.08131873
0.1685943
0.9500946
-2.41992
-11.44562
4.959925
-6.250284
-1.944379
-29.96495
26.4434
0.678534
-2.191986
-10.29727
3.707495
7.33907
1.476491
0.8903353
1.027108
0.1931121
-0.4184043
0.3830502
-90.02482
-1.007543
-106.8579
-2.316111
-25.87366
-4.225635
10.05101
2.253991
-2.780286
-1.249843
9.028634
9.112769
7.678187
5.830428
-27.52419
0.05249877
8.257486
3.321335
-0.06713695
-26.06446
-4.705614
-44.18432
0.9740931
-58.30871
6.926807
6.728069
-6.123737
5.332662
-6.146338
8.051146
0.711281
-162.7556
2.020269
1.736314
5.920492
1.142988
-2.34958
-42.99445
11.30527
5.764036
-1.818759
0.6631559
-2.681718
-0.3482226
6.408761
-4.525496
-0.1802554
5.586525
-24.49508
-15.10148
12.64257
8.250519
6.522644
-3.582719
1.539996
-2.405239
-1.336741
-47.06751
-0.6476798
5.328772
6.491914
4.940173
7.457367
-4.627302
-1.596766
-8.6327
2.837569
-1.947737
-1.618741
-40.49901
-4.705774
-9.696241
-2.547223
6.974222
1.093116
7.200501
-3.07011
1.424604
0.06098392
-0.5555813
-18.04703
7.31704
-1.056714
1.00634
8.746029
-5.761562
-2.066473
8.024609
-2.943071
8.052251
3.248328
-56.13235
1.98259
0.1972156
-2.371371
0.04363444
-2.158842
-0.01466979
-2.629504
-39.74839
-6.545523
7.730926
7.417505
4.659442
-1.439314
6.44602
6.751877
6.325891
10.54591
-7.639622
-2.12666
2.40173
-0.8056576
4.539891
-47.43015
-1.744919
-0.969055
-15.66424
9.904817
-1.653792
-40.58756
0.5858748
-1.348807
5.108034
-0.2121398
4.200426
0.4401819
9.357412
-5.111017
1.477943
1.814496
2.62804
2.092629
5.714307
-0.8480173
0.1867416
1.263537
-2.812843
6.096551
-18.02422
7.673581
-1.755811
6.458679
5.543323
14.87534
-262.3833
1.330074
-1.660127
7.576317
-1.711723
-10.15445
-0.2363061
0.6374749
5.332769
-31.3305
-15.71319
6.420082
2.452928
-30.42771
-1.059383
6.863434
-49.76896
-1.5407
-2.020094
-3.583796
2.132485
1.277955
0.03538826
-2.630714
2.571684
2.604221
-52.76695
7.912813
-0.9662148
-0.1888244
-14.8376
-4.182767
6.214978
-0.5707
-1.068652
7.674617
-30.6738
5.224319
0.4175993
5.003334
0.4113287
3.749735
-0.9401174
6.426366
0.9264657
0.1241667
3.629923
-2.699799
-0.6122623
8.551679
-54.73632
5.571481
2.383559
3.052522
6.627479
0.05429026
-10.41124
-27.16148
-2.722421
9.825986
-7.295482
-0.006137116
4.536781
4.121007
0.2986603
-10.81634
2.263312
-25.17208
3.541411