/*--------------------------------*- C++ -*----------------------------------*\
| =========                 |                                                 |
| \\      /  F ield         | OpenFOAM: The Open Source CFD Toolbox           |
|  \\    /   O peration     | Version:  2406                                  |
|   \\  /    A nd           | Website:  www.openfoam.com                      |
|    \\/     M anipulation  |                                                 |
\*---------------------------------------------------------------------------*/
FoamFile
{
    version     2.0;
    format      ascii;
    arch        "LSB;label=32;scalar=64";
    class       surfaceScalarField;
    location    "0.98";
    object      phi;
}
// * * * * * * * * * * * * * * * * * * * * * * * * * * * * * * * * * * * * * //

dimensions      [0 3 -1 0 0 0 0];

oriented        oriented;

internalField   nonuniform List<scalar> 
326221
(
-0.002048309
-0.004518943
0.006567252
-0.0008831096
-0.001165199
5.504594e-05
-0.0009381556
-0.00139067
0.001445716
-0.0009995937
-0.0003910763
-0.0002085731
-0.0007910205
-0.000143506
-6.506711e-05
-7.732097e-05
-6.618505e-05
-1.432453e-05
-6.299644e-05
-5.784689e-06
-8.539842e-06
8.937975e-05
-9.516444e-05
0.0002237998
-0.00013442
7.529865e-05
0.0001485011
-0.0001739538
0.0002492524
-0.0001834154
9.461679e-06
-7.709068e-05
-0.0001063248
0.0001400368
-0.0002171275
0.0002812807
-0.0001412439
0.0005231332
-0.0002418525
0.0008725551
-0.0003494219
0.001173046
-0.0003004914
0.001251845
-7.879805e-05
0.001006633
0.0002452118
0.0004215126
0.0005851201
-0.0001144043
0.0005359169
-0.00038279
0.0002683857
-0.0006277036
0.0002449136
-0.0008458665
0.0002181629
-0.0008077349
-3.813159e-05
-9.93607e-05
-0.0007083742
0.0007290524
-0.0008284131
0.0008718316
-0.0001427792
0.0004533873
0.0004184443
-0.0002564097
0.000709797
-0.001234188
0.0009777784
-0.001930772
0.0006965844
-0.002084162
0.0001533899
-0.001883692
-0.0002004702
-0.001502396
-0.0003812963
-0.0008694204
-0.0006329754
0.0001544571
-0.001023878
0.001112644
-0.0009581872
0.00198186
-0.0008692152
0.002693453
-0.0007115932
0.003258769
-0.000565316
0.003371489
-0.0001127204
0.002285279
0.00108621
0.0002804421
0.002004837
-0.0005656581
0.0008461002
-0.0009066916
0.0003410335
-0.0005510399
-0.0003556518
0.0002211107
-0.0007721506
0.0007001618
-0.0004790511
0.0009933705
-0.0002932087
0.001293709
-0.0003003382
0.001798275
-0.0005045663
0.002571366
-0.0007730911
0.003035839
-0.0004644731
0.002263584
0.0007722549
0.000819435
0.001444149
0.0002592041
0.0005602309
0.0005669997
-0.0003077956
0.0007610608
-0.0001940612
0.0006932187
6.78421e-05
0.0003888548
0.000304364
-9.013104e-05
0.0004789858
-0.0006473685
0.0005572375
-0.00118223
0.0005348617
-0.001638061
0.0004558304
-0.002003249
0.0003651888
-0.002292168
0.0002889189
-0.002523484
0.0002313154
-0.002712551
0.0001890673
-0.002870164
0.0001576126
-0.003002814
0.0001326499
-0.003114709
0.0001118956
-0.003208594
9.388471e-05
-0.00328771
7.911609e-05
-0.003354866
6.715641e-05
-0.003410983
5.611639e-05
-0.003456071
4.508792e-05
-0.003488312
3.224157e-05
-0.003504805
1.649234e-05
-0.003435247
-6.955704e-05
-0.003447868
1.262083e-05
-0.003461644
1.377541e-05
-0.003469708
8.064367e-06
-0.003466337
-3.370724e-06
-0.003458537
-7.800673e-06
-0.003443874
-1.466287e-05
-0.003413096
-3.07775e-05
-0.003382167
-3.092981e-05
-0.003347231
-3.493558e-05
-0.003302035
-4.519553e-05
-0.00324856
-5.347543e-05
-0.003185513
-6.304689e-05
-0.003122278
-6.323493e-05
-0.003055574
-6.670413e-05
-0.002982502
-7.307227e-05
-0.00290376
-7.874221e-05
-0.002820142
-8.361722e-05
-0.002736266
-8.387652e-05
-0.002651482
-8.478368e-05
-0.00257005
-8.143213e-05
-0.002481661
-8.838883e-05
-0.002391908
-8.975359e-05
-0.002303437
-8.847033e-05
-0.002214199
-8.923804e-05
-0.002117025
-9.717431e-05
-0.002010017
-0.0001070081
-0.001902346
-0.0001076706
-0.001790593
-0.0001117534
-0.001666502
-0.0001240904
-0.001543401
-0.0001231011
-0.001417107
-0.0001262946
-0.001293103
-0.0001240034
-0.00120312
-8.998293e-05
-0.00109167
-0.000111451
-0.0009765425
-0.000115127
-0.0008581655
-0.0001183769
-0.0007350028
-0.0001231628
-0.0006074057
-0.0001275971
-0.0004752972
-0.0001321085
-0.0003376972
-0.0001376
-0.0002261653
-0.0001115318
-9.24559e-05
-0.0001337095
2.036196e-05
-0.0001128179
0.0001427746
-0.0001224126
0.0002565634
-0.0001137888
0.0003729494
-0.000116386
0.0004842347
-0.0001112853
0.000591337
-0.0001071023
0.0006939294
-0.0001025924
0.0007916266
-9.769725e-05
0.0008900381
-9.841152e-05
0.0009819141
-9.187595e-05
0.001071455
-8.954097e-05
0.001159909
-8.845407e-05
0.001242634
-8.272528e-05
0.00132102
-7.838542e-05
0.001394238
-7.321839e-05
0.001459714
-6.547625e-05
0.001517569
-5.785496e-05
0.001569154
-5.158432e-05
0.001612387
-4.323296e-05
0.001647071
-3.468463e-05
0.001652972
-5.901111e-06
0.0016719
-1.892707e-05
0.001475497
0.0001964027
0.001262086
0.0002134107
-0.001212249
0.002474335
-7.36231e-05
-0.001138626
0.0009143834
-0.0009880065
0.0005711722
0.0003432112
0.000566665
4.507214e-06
-0.0002020843
0.0007687493
-0.001783778
0.001581694
-0.002916269
0.00113249
-0.003178052
0.0002617833
-0.002929282
-0.0002487704
-0.002441153
-0.0004881289
-0.001802343
-0.0006388093
-0.001075714
-0.0007266297
-0.0004748595
-0.0006008543
-5.833267e-05
-0.0004165268
0.000342629
-0.0004009617
0.0007519066
-0.0004092776
0.001201447
-0.0004495409
0.001257794
-5.634666e-05
0.000719957
0.0005378371
-1.241534e-05
0.0007323723
-0.0004938302
0.0004814149
-0.0005451745
5.134435e-05
3.42428e-05
-0.0005794173
0.0006913996
-0.0006571568
0.0008300293
-0.0001386297
0.0007275015
0.0001025278
0.0005317549
0.0001957466
-8.546836e-05
0.0006172233
-0.0008289972
0.0007435288
-0.001220307
0.0003913097
-0.001186402
-3.390487e-05
-0.0008635349
-0.0003228671
-0.0003614383
-0.0005020967
-0.0001420053
-0.0002194329
-8.396699e-05
-5.803833e-05
1.602425e-05
-9.999124e-05
0.0001252481
-0.0001092238
0.0002774948
-0.0001522467
0.0003451512
-6.765636e-05
-5.841491e-05
0.0004035661
-0.0004224031
0.0003639882
-0.0003568664
-6.553674e-05
2.716622e-06
-0.000359583
0.0002040958
-0.0002013792
1.779988e-05
0.000186296
-0.0001957413
0.0002135412
0.0008822485
-0.00107799
0.00154507
-0.0006628218
-0.002815922
0.004360992
-0.003024892
0.0002089694
-0.002742802
-0.0002820899
-0.002604361
-0.000138441
-0.002475455
-0.0001289053
-0.002375152
-0.0001003037
-0.002282299
-9.285244e-05
-0.002201072
-8.122682e-05
-0.002066314
-0.0001347582
-0.002008729
-5.758498e-05
-0.001965246
-4.348276e-05
-0.00192522
-4.002636e-05
-0.001890577
-3.464336e-05
-0.001855984
-3.459251e-05
-0.001822418
-3.356591e-05
-0.001789822
-3.259608e-05
-0.001761382
-2.844007e-05
-0.001735261
-2.612122e-05
-0.001709647
-2.561407e-05
-0.001683489
-2.615773e-05
-0.001659311
-2.41775e-05
-0.001635513
-2.379866e-05
-0.001613405
-2.210822e-05
-0.001594573
-1.883149e-05
-0.001574209
-2.036411e-05
-0.001552518
-2.169148e-05
-0.001529442
-2.307567e-05
-0.00150822
-2.122227e-05
-0.001489621
-1.859898e-05
-0.001473487
-1.613342e-05
-0.001455594
-1.789279e-05
-0.00143695
-1.864456e-05
-0.001415561
-2.138847e-05
-0.001397714
-1.784699e-05
-0.001381959
-1.575554e-05
-0.001364138
-1.782058e-05
-0.00134519
-1.89479e-05
-0.001324558
-2.063239e-05
-0.001306026
-1.853223e-05
-0.001288563
-1.746294e-05
-0.00131637
2.780751e-05
-0.001309979
-6.390861e-06
-0.001298571
-1.140875e-05
-0.001286435
-1.213545e-05
-0.001276124
-1.03116e-05
-0.001264811
-1.131303e-05
-0.001254717
-1.009406e-05
-0.00124584
-8.876147e-06
-0.001237221
-8.61948e-06
-0.001225239
-1.198178e-05
-0.001212245
-1.299416e-05
-0.001201861
-1.038426e-05
-0.001193467
-8.393975e-06
-0.001186992
-6.474286e-06
-0.001176548
-1.044429e-05
-0.001162101
-1.444737e-05
-0.001149006
-1.309501e-05
-0.001137142
-1.18641e-05
-0.001122207
-1.493492e-05
-0.001108672
-1.353453e-05
-0.001093701
-1.497139e-05
-0.001077233
-1.646737e-05
-0.00106118
-1.605337e-05
-0.001045532
-1.56476e-05
-0.00101757
-2.796262e-05
-0.0009860986
-3.147127e-05
-0.0009693292
-1.67694e-05
-0.0009486196
-2.070959e-05
-0.0008934624
-5.515718e-05
-0.0005846324
-0.00030883
0.0004719255
-0.001056558
0.001595781
-0.001123855
0.000191157
0.001404624
-0.0002705299
0.000461687
8.491575e-05
-0.0003554457
0.0004972816
-0.0004123659
0.0008002482
-0.0003029665
0.0009911015
-0.0001908533
0.001112816
-0.0001217146
0.001190413
-7.759705e-05
0.001245523
-5.511006e-05
0.001298414
-5.289072e-05
0.001344833
-4.641897e-05
0.001383473
-3.864046e-05
0.001411757
-2.828384e-05
0.001435946
-2.41892e-05
0.001457407
-2.146034e-05
0.00147988
-2.247317e-05
0.001500202
-2.032174e-05
0.001516136
-1.593398e-05
0.001531043
-1.490692e-05
0.001548331
-1.7288e-05
0.001563956
-1.562573e-05
0.001578184
-1.422729e-05
0.001594961
-1.677702e-05
0.001608948
-1.398735e-05
0.001626327
-1.73795e-05
0.001647018
-2.069008e-05
0.001664199
-1.718148e-05
0.001677926
-1.372717e-05
0.001693368
-1.54423e-05
0.001710594
-1.722508e-05
0.001721524
-1.093044e-05
0.001683562
3.796173e-05
0.001707108
-2.354622e-05
0.001736795
-2.968644e-05
0.001766534
-2.973946e-05
0.001796113
-2.957827e-05
0.001827398
-3.128506e-05
0.001856667
-2.926929e-05
0.001882817
-2.615028e-05
0.001911194
-2.83771e-05
0.001943285
-3.209111e-05
0.001978225
-3.493949e-05
0.002007575
-2.935054e-05
0.002035295
-2.77191e-05
0.002065068
-2.977308e-05
0.002097261
-3.219283e-05
0.00212995
-3.268964e-05
0.002166937
-3.698683e-05
0.002205172
-3.823463e-05
0.002243065
-3.789315e-05
0.002281682
-3.861758e-05
0.002317041
-3.53587e-05
0.002360024
-4.298299e-05
0.002404874
-4.484986e-05
0.002451635
-4.676088e-05
0.002501462
-4.982709e-05
0.002552765
-5.130303e-05
0.002609755
-5.69899e-05
0.00267267
-6.291492e-05
0.002736217
-6.35476e-05
0.002805162
-6.894422e-05
0.002884604
-7.944236e-05
0.00298155
-9.694581e-05
0.003182375
-0.0002008249
0.003319818
-0.0001374436
0.003475867
-0.000156049
0.00365016
-0.0001742924
0.003874227
-0.0002240672
0.00409881
-0.0002245835
0.004653795
-0.0005549846
0.0001348523
0.0006725959
-0.001698821
0.002430849
0.000334401
0.0007998818
0.0006363338
-0.0006573784
0.001116322
-0.0008923538
0.001480665
-0.00066731
0.001750879
-0.000461067
0.001961791
-0.0003326265
0.00213002
-0.0002458261
0.002269721
-0.0001948112
0.002399763
-0.000182933
0.002518724
-0.0001653802
0.00262839
-0.0001483065
0.002725906
-0.0001257999
0.002817128
-0.0001154112
0.002901518
-0.0001058501
0.002983909
-0.0001048637
0.003061473
-9.788581e-05
0.003133792
-8.825329e-05
0.003202108
-8.322316e-05
0.003269916
-8.509619e-05
0.003334396
-8.010517e-05
0.003395629
-7.546042e-05
0.003457302
-7.844973e-05
0.003514692
-7.137784e-05
0.003573275
-7.596184e-05
0.003632224
-7.963966e-05
0.003689042
-7.399913e-05
0.00374145
-6.613578e-05
0.00379496
-6.895178e-05
0.003847912
-7.017677e-05
0.003897516
-6.053509e-05
0.003859461
7.601683e-05
0.003920014
-8.409904e-05
0.003983562
-9.323419e-05
0.004046988
-9.316526e-05
0.004110062
-9.265297e-05
0.004173444
-9.466654e-05
0.004235933
-9.175881e-05
0.004294953
-8.517002e-05
0.004355913
-8.933747e-05
0.004417336
-9.351405e-05
0.004482236
-9.983932e-05
0.004541977
-8.909185e-05
0.004601725
-8.746668e-05
0.004661365
-8.941276e-05
0.004723128
-9.395583e-05
0.004784362
-9.392404e-05
0.004848898
-0.0001015224
0.00491458
-0.0001039167
0.004979935
-0.0001032485
0.00504694
-0.0001056226
0.005110564
-9.89829e-05
0.005180731
-0.0001131494
0.00525056
-0.0001146795
0.005323721
-0.0001199213
0.005397621
-0.0001237271
0.005474306
-0.0001279885
0.00555397
-0.0001366538
0.005639348
-0.0001482924
0.005724744
-0.0001489437
0.005815462
-0.0001596621
0.00591393
-0.0001779106
0.006027107
-0.0002101231
0.006305642
-0.0004793598
0.006460522
-0.0002923238
0.00663794
-0.0003334666
0.006829226
-0.0003655785
0.007080603
-0.0004754443
0.007292631
-0.0004366116
0.007916706
-0.001179059
0.007065856
0.0009857022
-0.005744237
0.004809597
0.001143609
-0.00538997
-0.0006363569
-0.005266775
-0.0002616365
-0.00511037
-0.0002853097
-0.004991943
-0.0002187313
-0.004877564
-0.0002072313
-0.004777641
-0.0001811499
-0.004577667
-0.0003347322
-0.004505737
-0.0001295148
-0.004445256
-0.0001039639
-0.004386811
-9.847143e-05
-0.004332997
-8.845665e-05
-0.004278603
-8.898712e-05
-0.004226175
-8.599312e-05
-0.004173476
-8.529577e-05
-0.004124893
-7.702282e-05
-0.004076386
-7.462869e-05
-0.004029684
-7.23158e-05
-0.003981441
-7.440067e-05
-0.003935622
-6.999666e-05
-0.003889175
-7.024493e-05
-0.003844302
-6.698177e-05
-0.003801079
-6.205412e-05
-0.003756794
-6.464891e-05
-0.003712123
-6.636258e-05
-0.003666196
-6.90034e-05
-0.0036221
-6.531824e-05
-0.003578397
-6.230212e-05
-0.003536742
-5.778772e-05
-0.003492234
-6.240059e-05
-0.003448385
-6.249448e-05
-0.003401355
-6.84179e-05
-0.003357096
-6.210605e-05
-0.003312568
-6.028349e-05
-0.00326658
-6.380883e-05
-0.003219113
-6.641507e-05
-0.003170401
-6.934368e-05
-0.003122985
-6.594841e-05
-0.003075779
-6.466931e-05
-0.003105374
5.74022e-05
-0.00306722
-4.45441e-05
-0.003026159
-5.246979e-05
-0.002983438
-5.485632e-05
-0.00294205
-5.16999e-05
-0.002898029
-5.533441e-05
-0.002854463
-5.366016e-05
-0.0028095
-5.383841e-05
-0.00276372
-5.439957e-05
-0.002714047
-6.165506e-05
-0.002662853
-6.418836e-05
-0.002611495
-6.174243e-05
-0.002558731
-6.115784e-05
-0.002504657
-6.054809e-05
-0.002444897
-7.020451e-05
-0.002380656
-7.86881e-05
-0.002314246
-7.950509e-05
-0.002245594
-8.05159e-05
-0.002170201
-9.032813e-05
-0.002092095
-9.164002e-05
-0.002006754
-0.0001003131
-0.001914138
-0.0001090836
-0.001813606
-0.0001165852
-0.001704354
-0.0001248991
-0.001572917
-0.0001593994
-0.001424067
-0.0001803218
-0.001268546
-0.0001722899
-0.001085964
-0.0002032921
-0.0008474168
-0.0002937041
-0.0004254897
-0.0007307571
0.0005400838
-0.002022131
-0.002282593
-0.0008072497
-0.002027873
0.005309458
7.824056e-05
-0.002024116
0.001120435
-0.002030201
0.001088807
0.0003748387
0.0003685146
0.0007247998
-0.001852534
0.002989798
-0.003907885
0.003637045
-0.004459821
0.001684427
-0.004253229
5.519088e-05
-0.003828289
-0.0006737099
-0.003185709
-0.001130709
-0.002371872
-0.001452646
-0.001459701
-0.001638801
-0.000669577
-0.001390978
-9.853442e-05
-0.0009875694
0.0004528262
-0.0009523223
0.00100515
-0.0009616016
0.00159231
-0.001036701
0.002031303
-0.00049534
0.001784999
0.0007841414
0.0005490605
0.001968311
-0.0003798518
0.001410327
-0.0003097388
-1.876873e-05
0.0002701357
-0.001159292
0.001091474
-0.001478495
0.001463857
-0.0005110126
0.001169733
0.0003966517
0.0002301703
0.001135309
-0.0009828253
0.001830219
-0.00173976
0.001500463
-0.001818025
0.0004695747
-0.001564268
-0.0002876614
-0.001095484
-0.0007916515
-0.0004482085
-0.001149372
-0.0002251638
-0.0004424776
-0.0001592356
-0.0001239665
3.134946e-05
-0.0002905763
0.0001569955
-0.0002348699
0.0004160935
-0.0004113447
0.0005033566
-0.0001549194
-0.0002360189
0.001142942
-0.000675454
0.0008034233
-0.0004107657
-0.000330225
6.70932e-05
-0.0008374419
0.0003835681
-0.0005178541
0.0003873495
0.0001825145
0.0005335062
6.738451e-05
0.001495518
-0.002040002
0.0009797088
-0.0001470123
0.0101503
-0.0006854985
0.000928989
-0.0005991422
-9.693841e-05
-0.001360711
1.388543e-05
-0.0005898749
0.0001037701
-0.0003830935
0.0001333838
-0.0003299519
0.0002195137
-0.0005906961
0.0006615862
-0.001215164
0.001791768
-0.001594655
0.002493444
7.05788e-05
0.001971735
0.001965859
0.001081341
0.001450625
3.545628e-05
0.000738089
-0.0009752093
0.0008166045
-0.001953324
0.001045957
-0.002944369
0.001295409
-0.00391163
0.001446247
-0.004743757
0.001389365
-0.005380891
0.001171995
-0.005832304
0.0009072429
-0.006141143
0.0006740287
-0.006352575
0.0005003505
-0.006499188
0.0003779281
-0.006601421
0.0002913005
-0.006672032
0.0002282234
-0.006718528
0.0001791456
-0.006745779
0.0001391466
-0.006756735
0.0001048409
-0.006754522
7.690287e-05
-0.00674147
5.41044e-05
-0.006718682
3.332859e-05
-0.006686841
1.32475e-05
-0.006646439
-8.160942e-06
-0.006599981
-2.996551e-05
-0.006419723
-0.0002498148
-0.006375301
-3.180112e-05
-0.006323843
-3.768282e-05
-0.006265356
-5.04226e-05
-0.006195725
-7.300184e-05
-0.006119932
-8.359367e-05
-0.00603569
-9.890456e-05
-0.005935216
-0.000131252
-0.005832144
-0.0001340016
-0.005723223
-0.0001438569
-0.005604269
-0.0001641491
-0.005478022
-0.0001797225
-0.005343446
-0.0001976233
-0.005208994
-0.0001976865
-0.005071867
-0.0002038313
-0.004930144
-0.0002147947
-0.004784769
-0.000224118
-0.004635956
-0.0002324297
-0.004487278
-0.0002325546
-0.004337197
-0.0002348646
-0.004189142
-0.0002294876
-0.004033376
-0.0002441542
-0.003874697
-0.0002484332
-0.003714411
-0.000248756
-0.003550153
-0.0002534963
-0.003375409
-0.000271918
-0.003188162
-0.0002942548
-0.002996301
-0.0002995321
-0.002797381
-0.000310673
-0.002586853
-0.0003346191
-0.002379689
-0.0003302642
-0.002172555
-0.0003334288
-0.001969813
-0.0003267455
-0.001814491
-0.0002453045
-0.001627234
-0.0002987085
-0.001434938
-0.0003074229
-0.001238888
-0.0003144274
-0.001037377
-0.000324673
-0.0008301029
-0.0003348716
-0.0006161293
-0.0003460821
-0.0003970787
-0.0003566506
-0.0002074745
-0.000301136
4.568554e-06
-0.0003457525
0.0001942288
-0.0003024781
0.000396192
-0.0003243758
0.0005856346
-0.0003032314
0.0007775834
-0.0003083348
0.0009637678
-0.0002974698
0.001145889
-0.0002892232
0.001323326
-0.0002800295
0.001495107
-0.000269478
0.001666136
-0.0002694406
0.001830239
-0.000255979
0.001991472
-0.0002507738
0.002150304
-0.0002472862
0.002303006
-0.0002354272
0.00245114
-0.0002265195
0.002593646
-0.0002157246
0.002728432
-0.0002002629
0.00285572
-0.0001851423
0.002976125
-0.0001719892
0.003088199
-0.0001553067
0.003191647
-0.0001381335
0.003273246
-8.749928e-05
0.003375391
-0.0001210729
0.003072343
0.0004994511
0.00125788
-0.0009223927
0.0145555
-0.002169264
8.1672e-05
-0.001701196
-0.001406224
-0.002168257
0.001912777
-0.001371707
-0.001187626
-0.0004343037
-0.001728424
-0.0003332381
-0.0001661327
-0.0002964523
-0.0001029708
-0.0002710833
-8.836551e-05
-0.0002013999
-7.822322e-05
2.216069e-05
-0.000318725
0.0002882661
-0.0004005255
0.0001902227
0.0002465445
-0.0001151597
0.0005546348
-0.0001890761
8.337806e-05
-5.780515e-06
-0.0002896203
0.0003215994
-0.0005445074
0.0005252798
-0.0003449243
0.0008417874
-0.0005583601
0.001284124
-0.0007917586
0.001689213
-0.0007055799
0.001919698
-0.000309283
0.001925087
0.0002398223
0.001450426
0.001059781
0.0005414983
0.001444845
-0.0003429897
0.001152874
-0.0008917628
0.0007936866
-0.001121168
0.0004475682
-0.0009523814
-0.0002069182
-5.044989e-05
-0.001610306
0.0007680077
-0.001646871
0.001012559
-0.0003873304
0.0002624858
0.001168517
-0.001473966
0.002446249
-0.002786529
0.002290341
-0.003048315
0.0009583703
-0.002824336
-7.058923e-05
-0.002418438
-0.0006063679
-0.001841989
-0.0009577453
-0.0009737232
-0.001501242
0.0002864752
-0.002284076
0.001448246
-0.002119958
0.002514644
-0.001935613
0.003422118
-0.001619067
0.004086612
-0.00122981
0.004581617
-0.0006077252
0.004280936
0.001386891
0.002031828
0.004253945
-3.380462e-05
0.002911733
0.001236218
0.0007379958
-0.009125622
0.02294313
-0.002429728
0.003249396
-0.002547761
-0.001288191
-0.002819238
0.002184255
-0.001793085
-0.002213778
-0.0006608964
-0.002860613
-0.0005211615
-0.0003058676
-0.0005192914
-0.0001048409
-0.0004790879
-0.000128569
-0.0003275936
-0.0002297176
-4.311859e-05
-0.0006032
0.0002438215
-0.0006874655
0.0002058097
0.0002845563
-0.0001117233
0.0008721679
-0.0002496036
0.0002212583
-5.523978e-05
-0.0004839842
0.0003752008
-0.0009749479
0.0006453242
-0.0006150477
0.001025263
-0.000938299
0.00154475
-0.001311246
0.002039406
-0.001200236
0.002319805
-0.0005896819
0.00242013
0.000139498
0.002208084
0.001271827
0.001434671
0.002218257
0.0002066789
0.002380866
-0.0006797328
0.001680098
-0.0009121264
0.0006799618
-0.0007418405
-0.0003772041
-6.067547e-05
-0.002291471
0.0004024642
-0.00211001
0.0004189771
-0.0004038433
-0.0009000254
0.00248752
-0.002904814
0.004451038
-0.003731457
0.003116985
-0.003637701
0.0008646136
-0.003373409
-0.0003348811
-0.002881431
-0.001098346
-0.00217052
-0.001668656
-0.001089939
-0.002581823
0.0004346615
-0.003808676
0.001843199
-0.003528496
0.003151689
-0.003244103
0.004252972
-0.00272035
0.005090917
-0.002067755
0.005593892
-0.001110701
0.005568907
0.001411876
0.003780316
0.006042537
0.0007285019
0.005963546
-0.0009261057
0.002890825
-0.0008311884
-0.0006940595
-0.0008760312
-0.001315868
-0.001467463
1.556591e-06
-0.002237524
0.0003869675
-0.002824913
0.0002574373
-0.002907852
-0.0005077574
-0.002328148
-0.001794867
-0.001158972
-0.00276383
0.0004935717
-0.001581965
0.0008570234
0.001602407
-0.001240459
0.003548107
-0.003651932
0.003149562
-0.005295084
0.002459756
-0.006390323
0.002141196
-0.007215476
0.002120561
-0.007821755
0.002052527
-0.008220193
0.001787803
-0.008457267
0.001409069
-0.008590605
0.00104058
-0.008664409
0.0007478326
-0.008703888
0.00053983
-0.008721699
0.000395739
-0.008724104
0.0002937055
-0.00871475
0.0002188691
-0.008695456
0.0001598514
-0.008667533
0.0001112242
-0.008631322
6.862932e-05
-0.008588028
3.360938e-05
-0.008538666
4.742029e-06
-0.008483118
-2.22194e-05
-0.008421273
-4.859689e-05
-0.008353338
-7.60959e-05
-0.008280844
-0.00010246
-0.008045996
-0.0004846623
-0.007972654
-0.0001051437
-0.007891175
-0.0001191617
-0.007802538
-0.0001390594
-0.007700554
-0.0001749861
-0.007591315
-0.0001928327
-0.007473522
-0.0002166973
-0.007337481
-0.000267293
-0.007199087
-0.000272396
-0.007054604
-0.0002883393
-0.006899403
-0.0003193505
-0.006737337
-0.0003417883
-0.006566459
-0.0003685018
-0.006396747
-0.0003673986
-0.006224723
-0.0003758545
-0.006048213
-0.0003913049
-0.005868394
-0.0004039375
-0.005684939
-0.0004158847
-0.005502022
-0.0004154714
-0.005316804
-0.000420082
-0.005133809
-0.0004124826
-0.004941051
-0.0004369125
-0.004744485
-0.0004449995
-0.004545209
-0.0004480322
-0.004340494
-0.0004582114
-0.004123177
-0.0004892348
-0.003890974
-0.0005264572
-0.003653139
-0.0005373671
-0.003407437
-0.000556375
-0.00314871
-0.0005933464
-0.002895484
-0.0005834907
-0.002643072
-0.0005858404
-0.002396605
-0.0005732126
-0.002207213
-0.0004346967
-0.001978097
-0.0005278248
-0.001743724
-0.0005417951
-0.001504295
-0.0005538568
-0.001257273
-0.000571695
-0.00100188
-0.0005902649
-0.0007378125
-0.0006101493
-0.0004704351
-0.000624028
-0.0002370719
-0.0005344991
2.471054e-05
-0.000607535
0.0002572588
-0.0005350263
0.0005063511
-0.0005734681
0.0007405144
-0.0005373947
0.000978863
-0.0005466834
0.001210286
-0.000528893
0.001437494
-0.0005164315
0.001659797
-0.0005023316
0.001876263
-0.0004859445
0.002092427
-0.0004856048
0.002301121
-0.0004646728
0.002507586
-0.0004572392
0.002711559
-0.0004512585
0.002909228
-0.0004330962
0.003102677
-0.0004199692
0.003290301
-0.0004033477
0.003470056
-0.0003800181
0.003642356
-0.0003574429
0.003807658
-0.0003372908
0.003963971
-0.0003116201
0.004111904
-0.0002860663
0.004237932
-0.0002135266
0.004366935
-0.0002500766
0.004096105
0.0007702817
0.002682153
0.002671832
-0.0003479135
0.008339524
0.0003063525
-0.002678382
0.001349683
-0.003073532
0.001066625
0.0006578976
-0.0006295173
0.002420942
-0.003592538
0.005952818
-0.005201049
0.005245556
-0.005404956
0.001888335
-0.005220215
-0.0001295508
-0.004746773
-0.001147152
-0.003972672
-0.001904809
-0.002995984
-0.002429335
-0.001896982
-0.002737803
-0.0009202572
-0.002367703
-0.0002050669
-0.00170276
0.0004681329
-0.001625522
0.001147054
-0.001640523
0.001850084
-0.00173973
0.002438026
-0.001083283
0.002640577
0.000581591
0.001680551
0.002928337
0.0005118671
0.002579011
0.0003666384
0.0001264599
0.0008155194
-0.001608173
0.001484196
-0.002147172
0.001773194
-0.0008000104
0.0010293
0.001140546
-0.0005136386
0.002678248
-0.00177802
0.0030946
-0.002186223
0.001908667
-0.002134015
0.0004173666
-0.001861524
-0.000560152
-0.00127896
-0.001374215
-0.0004225133
-0.002005819
-0.0001248396
-0.0007401513
-4.508655e-05
-0.0002037196
0.0001754355
-0.0005110984
0.0002297383
-0.0002891727
0.0004960307
-0.0006776371
0.0005037734
-0.0001626621
-0.0004260918
0.002072807
-0.0007967894
0.001174121
-0.0003695974
-0.000757417
0.0001795767
-0.001386616
0.00053691
-0.0008751874
0.0006110115
0.0001084131
0.001082193
-0.000403797
0.001858555
-0.002816364
-0.0001985585
0.001910101
-0.006504888
0.01645663
-0.007529645
0.002168367
-0.007143831
-0.001022171
-0.007010308
-0.0003951592
-0.006837725
-0.0004578924
-0.006708947
-0.0003475094
-0.006583801
-0.0003323779
-0.006477517
-0.0002874338
-0.006241607
-0.0005706417
-0.00616366
-0.0002074617
-0.006091544
-0.0001760806
-0.006021011
-0.0001690044
-0.005954458
-0.0001550096
-0.00588644
-0.000157005
-0.005820516
-0.000151917
-0.005753282
-0.0001525292
-0.005689935
-0.00014037
-0.005625316
-0.0001392477
-0.005562725
-0.0001349073
-0.005497711
-0.0001394142
-0.005435187
-0.0001325207
-0.005371154
-0.000134278
-0.005308351
-0.0001297855
-0.005246548
-0.0001238563
-0.005183414
-0.0001277836
-0.005120188
-0.0001295881
-0.005055368
-0.0001338231
-0.004992206
-0.0001284811
-0.004928225
-0.0001262827
-0.0048661
-0.0001199127
-0.004800191
-0.0001283098
-0.004735647
-0.0001270383
-0.004667104
-0.0001369611
-0.004601243
-0.0001279672
-0.004533988
-0.0001275384
-0.004465051
-0.0001327451
-0.004394476
-0.0001369902
-0.004322181
-0.0001416388
-0.004249837
-0.0001382927
-0.004175323
-0.0001391831
-0.00419265
7.472949e-05
-0.004123908
-0.0001132869
-0.004058804
-0.0001175736
-0.003990419
-0.000123241
-0.003923643
-0.0001184765
-0.00385318
-0.000125797
-0.003783053
-0.0001237874
-0.003710633
-0.0001262583
-0.003637151
-0.000127881
-0.003559117
-0.0001396898
-0.003479336
-0.000143969
-0.003398836
-0.0001422422
-0.003315873
-0.000144121
-0.003230956
-0.0001454652
-0.003139459
-0.0001617016
-0.00304289
-0.000175257
-0.002943714
-0.0001786809
-0.002841364
-0.0001828662
-0.002730398
-0.0002012937
-0.00261603
-0.0002060088
-0.002492406
-0.0002239372
-0.002359698
-0.0002417907
-0.002216079
-0.0002602051
-0.002060052
-0.0002809259
-0.001874046
-0.0003454049
-0.001664068
-0.0003903004
-0.001440567
-0.0003957903
-0.001164459
-0.0004794008
-0.0007976789
-0.0006604839
-0.000280516
-0.00124792
0.0007363064
-0.003038954
0.002061789
-0.003608075
0.001616039
0.002876599
0.001466206
0.0009497146
0.00160077
-0.0007919427
0.001951463
-0.001243047
0.00229204
-0.001007887
0.002572726
-0.0007417529
0.002802643
-0.0005625434
0.00299156
-0.0004347428
0.003151695
-0.0003549467
0.003304185
-0.0003354226
0.003446518
-0.0003077138
0.003581033
-0.0002828208
0.003702909
-0.0002476765
0.003818867
-0.0002313687
0.003927456
-0.000214439
0.004034678
-0.0002120855
0.004137207
-0.0002004153
0.00423441
-0.0001854566
0.004327267
-0.0001760802
0.004419801
-0.0001776302
0.004508901
-0.0001692047
0.004594297
-0.0001608566
0.004680578
-0.0001647308
0.004761524
-0.0001523236
0.004843602
-0.0001580403
0.004925649
-0.0001616861
0.005005837
-0.0001541873
0.00508106
-0.0001413583
0.005157718
-0.0001456104
0.005232407
-0.0001448656
0.005310444
-0.0001385726
0.00527651
0.000109951
0.00536328
-0.000170869
0.00545079
-0.0001807434
0.005536549
-0.0001789248
0.005621351
-0.0001774545
0.005705897
-0.0001792125
0.005789721
-0.000175583
0.005869416
-0.0001648652
0.005950945
-0.0001708662
0.006031414
-0.0001739832
0.006115919
-0.0001843448
0.006194651
-0.0001678233
0.006273909
-0.0001667249
0.00635217
-0.0001676739
0.006432446
-0.0001742314
0.006511328
-0.0001728064
0.006593243
-0.0001834369
0.006675963
-0.0001866373
0.006757979
-0.0001852642
0.006842229
-0.0001898727
0.006921994
-0.0001787478
0.007008561
-0.0001997166
0.007093299
-0.0001994176
0.007181693
-0.0002083156
0.007269866
-0.0002118997
0.007360702
-0.0002188244
0.007453469
-0.0002294209
0.007551775
-0.000246598
0.007649342
-0.0002465112
0.007751721
-0.0002620407
0.007861707
-0.0002878968
0.007981961
-0.0003303773
0.008303329
-0.0008007279
0.008465468
-0.0004544623
0.00865601
-0.0005240092
0.008863049
-0.0005726168
0.009139043
-0.0007514384
0.0093911
-0.0006886688
0.01002719
-0.00181515
0.001887271
0.002482474
-0.002430852
0.002824977
0.002598725
0.0008334634
0.002658579
-0.0008517962
0.002875737
-0.001460205
0.003158577
-0.001290727
0.003428457
-0.001011634
0.00366968
-0.0008037655
0.003878307
-0.0006433704
0.004060471
-0.0005371107
0.00423643
-0.0005113809
0.004401205
-0.0004724894
0.004557918
-0.0004395337
0.004700721
-0.0003904791
0.004836963
-0.0003676112
0.004964808
-0.0003422844
0.005090735
-0.0003380124
0.005211657
-0.0003213369
0.005326119
-0.0002999182
0.005435889
-0.0002858507
0.005545026
-0.0002867674
0.005650237
-0.000274415
0.005751155
-0.000261775
0.005853397
-0.0002669731
0.005949079
-0.0002480052
0.006046239
-0.0002552001
0.006143483
-0.0002589302
0.00623827
-0.0002489741
0.006327855
-0.000230944
0.006418866
-0.0002366208
0.006507534
-0.0002335336
0.006602252
-0.0002332906
0.006559817
0.0001523855
0.006661861
-0.000272913
0.006766514
-0.0002853961
0.006867915
-0.0002803258
0.006968207
-0.0002777462
0.007068231
-0.0002792367
0.007167205
-0.0002745572
0.007261415
-0.000259075
0.007357617
-0.0002670686
0.007452422
-0.0002687876
0.00755192
-0.0002838433
0.007644588
-0.0002604911
0.007738028
-0.0002601649
0.007830372
-0.0002600176
0.007924779
-0.0002686387
0.008017467
-0.000265495
0.008113811
-0.0002797802
0.008210832
-0.0002836587
0.008307118
-0.00028155
0.008406232
-0.0002889864
0.008499563
-0.0002720791
0.008601491
-0.000301645
0.008700403
-0.0002983289
0.008803564
-0.0003114767
0.00890663
-0.0003149662
0.009011989
-0.0003241828
0.009120081
-0.0003375129
0.009233968
-0.0003604849
0.009346717
-0.0003592609
0.009464882
-0.0003802057
0.009592061
-0.0004150756
0.009932841
-0.0006711568
0.01010778
-0.0009756635
0.0102919
-0.0006385846
0.01051247
-0.0007445855
0.01076006
-0.0008201973
0.011083
-0.001074382
0.01143368
-0.001039346
0.012014
-0.002395476
0.01130391
0.002597363
-0.009074742
0.008196241
0.003046868
-0.008715761
-0.001381152
-0.008528904
-0.0005820161
-0.008327398
-0.0006593988
-0.008173512
-0.0005013953
-0.008026978
-0.0004789121
-0.007905288
-0.0004091235
-0.007785504
-0.0006904261
-0.007534516
-0.0004584496
-0.007448531
-0.0002620653
-0.007363802
-0.0002537339
-0.007283502
-0.0002353095
-0.007201178
-0.0002393287
-0.007121047