/*--------------------------------*- C++ -*----------------------------------*\
| =========                 |                                                 |
| \\      /  F ield         | OpenFOAM: The Open Source CFD Toolbox           |
|  \\    /   O peration     | Version:  2406                                  |
|   \\  /    A nd           | Website:  www.openfoam.com                      |
|    \\/     M anipulation  |                                                 |
\*---------------------------------------------------------------------------*/
FoamFile
{
    version     2.0;
    format      ascii;
    arch        "LSB;label=32;scalar=64";
    class       surfaceScalarField;
    location    "4.36";
    object      phi;
}
// * * * * * * * * * * * * * * * * * * * * * * * * * * * * * * * * * * * * * //

dimensions      [0 3 -1 0 0 0 0];

oriented        oriented;

internalField   nonuniform List<scalar> 
23794
(
-0.006322181
0.002275657
0.004046524
-0.008278822
0.001956641
-0.008429161
0.0001503385
-0.007828302
-0.0006008586
-0.007010789
-0.000817513
-0.00609382
-0.0009169694
-0.005134067
-0.0009597524
-0.004137729
-0.0009963384
-0.003238275
-0.0008994544
-0.002445801
-0.0007924735
-0.001729398
-0.0007164035
-0.00132211
-0.0004072879
-0.000992292
-0.0003298178
-0.0007979186
-0.0001943734
-0.0005699212
-0.0002279974
-0.0005069392
-6.298194e-05
-0.0006804892
0.00017355
-0.0008336096
0.0001531204
-0.001276855
0.0004432451
-0.002492324
0.00121547
-0.003594044
0.001101719
-0.002809592
-0.000784452
-0.0008839244
-0.001925667
0.0009507222
-0.001834647
0.002736967
-0.001786244
0.005180583
-0.002443617
0.008255486
-0.003074903
0.01052958
-0.002274096
0.006172862
0.00435672
-0.002307753
0.008480615
-0.005548934
0.003241181
-0.002054161
-0.003494773
0.001368427
-0.003422587
0.003945217
-0.002576791
0.007037591
-0.003092374
0.007645211
-0.0006076198
0.004180329
0.003464882
0.001148678
0.003031651
-0.001167456
0.002316134
-0.005359378
0.004191922
-0.009287453
0.003928075
-0.01152488
0.002237422
-0.01267792
0.001153049
-0.0133419
0.0006639718
-0.01376623
0.0004243356
-0.01396343
0.0001971994
-0.01403816
7.472832e-05
-0.01403752
-6.382671e-07
-0.0139759
-6.162529e-05
-0.01389477
-8.112942e-05
-0.01375361
-0.0001411582
-0.0135704
-0.0001832113
-0.01332859
-0.0002418049
-0.01306181
-0.0002667838
-0.01277567
-0.0002861384
-0.01243599
-0.0003396818
-0.01207552
-0.000360466
-0.01170522
-0.0003703006
-0.0112725
-0.0004327227
-0.01081652
-0.0004559779
-0.01033518
-0.0004813422
-0.009845647
-0.0004895317
-0.009334633
-0.0005110135
-0.008776211
-0.0005584223
-0.00822351
-0.0005527008
-0.007630262
-0.0005932478
-0.007020022
-0.0006102408
-0.006401343
-0.0006186784
-0.005773714
-0.0006276297
-0.005116949
-0.0006567644
-0.004456929
-0.00066002
-0.003787642
-0.0006692872
-0.00310323
-0.000684412
-0.00241233
-0.0006908998
-0.001743334
-0.0006689958
-0.001024279
-0.0007190552
-0.0003385399
-0.0006857391
0.0003197121
-0.000658252
0.0009544441
-0.000634732
0.001687977
-0.0007335328
0.002417688
-0.0007297113
0.003139743
-0.0007220543
0.003848316
-0.0007085732
0.004540127
-0.0006918111
0.005231391
-0.0006912641
0.005900244
-0.0006688528
0.006580189
-0.0006799455
0.007239831
-0.0006596417
0.0078636
-0.000623769
0.008491247
-0.0006276474
0.009106484
-0.0006152367
0.009699359
-0.0005928755
0.01028966
-0.000590305
0.01086673
-0.0005770619
0.01138893
-0.0005222018
0.01190878
-0.0005198537
0.01241446
-0.0005056747
0.01287913
-0.0004646753
0.01334653
-0.0004673972
0.01376099
-0.0004144572
0.01414955
-0.0003885615
0.01449998
-0.0003504282
0.01480849
-0.0003085103
0.01511511
-0.0003066277
0.0153861
-0.0002709906
0.0156196
-0.0002334983
0.0158125
-0.0001928966
0.01596573
-0.00015323
0.01609289
-0.0001271599
0.01615923
-6.633955e-05
0.01621249
-5.326281e-05
0.01620005
1.243961e-05
0.01602721
0.0001728428
0.01572792
0.0002992893
0.01531473
0.000413187
0.01474276
0.0005719763
0.01386575
0.0008770029
0.01238872
0.00147703
0.009623217
0.002765507
0.005129045
0.004494172
0.0006102178
0.004518827
0.0004787019
0.0001315158
-0.0001569949
0.0006356969
-0.005300256
0.005143261
-0.01015818
0.004857926
-0.008953778
-0.001204404
-0.005484118
-0.003469659
-0.003509289
-0.00197483
-0.002576381
-0.0009329079
-0.0006205724
-0.001955809
0.002969686
-0.003590259
0.005085898
-0.002116212
-0.000743489
0.005829387
-0.007854956
0.007111467
-0.009250484
0.001395528
-0.008632531
-0.0006179525
-0.007506503
-0.001126028
-0.005551034
-0.00195547
-0.003190099
-0.002360935
-0.0004009205
-0.002789178
0.001474987
-0.001875908
0.001567401
-9.241408e-05
0.001079747
0.0004876536
0.001153665
-7.391782e-05
0.002637908
-0.001484242
0.004425404
-0.001787496
0.005406882
-0.0009814782
0.003853548
0.001553334
0.0002227072
0.003630841
-0.0026821
0.002904807
-0.002938311
0.0002562114
-0.0006663618
-0.002271949
0.001647003
-0.002313365
0.002473469
-0.0008264658
0.002122127
0.0003513419
0.001124491
0.0009976357
0.003400148
-0.01175316
0.008567581
0.007232101
-0.01174905
0.001952538
-0.01101589
-0.0005828228
-0.01016282
-0.001453933
-0.009076397
-0.001903935
-0.007888015
-0.002105351
-0.006671749
-0.002176018
-0.005425535
-0.002242552
-0.004292874
-0.002032115
-0.003291222
-0.001794126
-0.002394999
-0.001612626
-0.001850522
-0.0009517644
-0.001389002
-0.0007913378
-0.001086315
-0.0004970611
-0.0007401643
-0.0005741478
-0.0005691709
-0.0002339753
-0.000677815
0.0002821941
-0.001243882
0.0007191875
-0.002947907
0.00214727
-0.005101096
0.003368658
-0.005409907
0.001410531
-0.00325505
-0.002939309
-0.0007257727
-0.004454944
0.001279097
-0.003839516
0.003161561
-0.003668709
0.005830977
-0.005113033
0.009261603
-0.006505529
0.01255152
-0.005564015
0.009968587
0.006939656
-1.056444e-05
0.01845977
-0.006996656
0.01022727
-0.004478264
-0.006013165
-0.002277288
-0.005623563
-0.0006801891
-0.004173889
0.001505491
-0.005278054
0.004361222
-0.003463351
0.004265215
0.003560888
-0.002304481
0.009601347
-0.01125875
0.0112704
-0.01709927
0.01003245
-0.01956985
0.006398656
-0.02021061
0.002878176
-0.02035049
0.001292937
-0.02035668
0.000670156
-0.0203023
0.0003699553
-0.02013733
3.223746e-05
-0.01995202
-0.0001105883
-0.01976139
-0.0001912639
-0.01952627
-0.0002967433
-0.01926981
-0.0003375898
-0.01895252
-0.000458456
-0.01859372
-0.0005420123
-0.01817189
-0.0006636282
-0.01772415
-0.0007145212
-0.01726233
-0.0007479605
-0.01674281
-0.0008591995
-0.01619836
-0.000904925
-0.01564765
-0.0009210064
-0.01502543
-0.001054944
-0.01438093
-0.001100477
-0.01370706
-0.001155206
-0.01302359
-0.001173005
-0.01231994
-0.001214669
-0.01156062
-0.001317741
-0.01080956
-0.001303759
-0.0100158
-0.001387007
-0.009200235
-0.001425806
-0.008378101
-0.001440813
-0.007549367
-0.001456363
-0.006685086
-0.001521045
-0.005816188
-0.001528918
-0.004938517
-0.001546959
-0.004044168
-0.001578761
-0.003144876
-0.001590192
-0.002267424
-0.001546448
-0.001338822
-0.001647657
-0.0004462626
-0.001578298
0.0004144813
-0.001518996
0.001250295
-0.001470545
0.002195386
-0.001678624
0.003141472
-0.001675797
0.004079802
-0.001660384
0.005001515
-0.001630286
0.005906576
-0.001596872
0.00681293
-0.001597618
0.007693556
-0.001549479
0.008587528
-0.001573917
0.009458795
-0.001530909
0.01028619
-0.001451161
0.01112079
-0.001462251
0.01194537
-0.001439819
0.01274156
-0.001389061
0.01353569
-0.001384436
0.01431874
-0.001360112
0.01503722
-0.001240683
0.01575728
-0.001239914
0.01646153
-0.001209924
0.01712002
-0.001123166
0.0177837
-0.001131073
0.01838513
-0.001015893
0.01896507
-0.000968503
0.01950211
-0.0008874657
0.01999306
-0.0007994631
0.0204889
-0.0008024656
0.02094673
-0.0007288147
0.02136321
-0.0006499798
0.02173815
-0.0005678416
0.02207203
-0.0004871091
0.0223804
-0.0004355296
0.02262836
-0.000314299
0.02287379
-0.0002986921
0.02309308
-0.000206847
0.02322541
4.051348e-05
0.02331861
0.0002060874
0.02338871
0.0003430814
0.02342321
0.000537483
0.02335461
0.0009456018
0.02308657
0.00174507
0.02209427
0.003757803
0.01895082
0.007637628
0.01392048
0.009549167
0.007282449
0.006769542
-0.0001296551
0.008047801
-0.006318975
0.01133258
-0.007651869
0.00619082
-0.004183669
-0.004672605
-0.001017687
-0.006635641
0.0006491354
-0.003641652
0.0009702912
-0.001254064
0.001768717
-0.002754235
0.004805786
-0.006627328
0.004663199
-0.001973625
-0.004169203
0.01466179
-0.01094139
0.01388365
-0.01092318
0.001377324
-0.01028967
-0.001251471
-0.008963339
-0.002452356
-0.006678283
-0.004240525
-0.003868615
-0.005170603
-0.0002812994
-0.006376494
0.002747252
-0.004904459
0.002949255
-0.0002944169
0.001601965
0.001834944
0.001359065
0.0001689821
0.003205259
-0.003330437
0.005357541
-0.003939778
0.007023933
-0.00264787
0.006710376
0.001866891
0.002207693
0.008133523
-0.002566297
0.007678797
-0.002601148
0.0002910626
0.0004333643
-0.005306462
0.00293567
-0.004815671
0.003916787
-0.001807582
0.002759816
0.001508312
-0.001952531
0.005709983
0.0100152
-0.01423214
0.01345587
0.008008373
-0.01357961
0.001300014
-0.01293368
-0.001228755
-0.01187679
-0.002510821
-0.01057135
-0.003209384
-0.00916124
-0.003515457
-0.007723743
-0.003613515
-0.006262166
-0.003704129
-0.004941428
-0.003352853
-0.003778919
-0.002956635
-0.002746115
-0.00264543
-0.002129737
-0.001568142
-0.001606073
-0.001315002
-0.001272279
-0.0008308551
-0.0009010782
-0.0009453489
-0.0007576465
-0.0003774071
-0.0007450388
0.0002695865
-0.001528904
0.001503053
-0.004010686
0.004629053
-0.006262324
0.005620295
-0.005785203
0.0009334109
-0.003051346
-0.005673167
-0.0005231718
-0.006983118
0.001265876
-0.005628564
0.002935598
-0.005338431
0.005767392
-0.007944826
0.00972745
-0.01046559
0.0132209
-0.009057469
0.01125616
0.008904403
0.001783453
0.02793247
-0.007110348
0.01912107
-0.008788065
-0.004335448
-0.00971537
-0.004696258
-0.009431298
-0.004457962
-0.00681862
-0.007890731
-0.003039605
-0.007242366
-0.004054679
0.004575962
-0.01297132
0.01851799
-0.02146797
0.01976705
-0.02390796
0.01247244
-0.02388018
0.006370875
-0.02380633
0.002804323
-0.02389988
0.001386488
-0.02396948
0.0007397526
-0.02399686
0.000397341
-0.02387462
-9.000693e-05
-0.02369783
-0.0002873753
-0.02348621
-0.0004028841
-0.02321372
-0.0005692358
-0.02292003
-0.0006312738
-0.02255059
-0.0008279031
-0.02213294
-0.0009596548
-0.02163917
-0.001157401
-0.02111312
-0.001240575
-0.02057175
-0.001289328
-0.01995878
-0.001472165
-0.019316
-0.001547708
-0.01866713
-0.001569873
-0.01792999
-0.001792085
-0.01716643
-0.001864044
-0.01636739
-0.001954244
-0.01555661
-0.001983778
-0.01472169
-0.002049594
-0.0138175
-0.002221926
-0.01292459
-0.002196672
-0.01197817
-0.002333431
-0.01100584
-0.002398137
-0.01002488
-0.002421764
-0.009035599
-0.002445648
-0.008003314
-0.00255333
-0.006965215
-0.002567018
-0.005915637
-0.002596537
-0.004846456
-0.002647942
-0.003770092
-0.002666555
-0.002717283
-0.002599257
-0.001606866
-0.002758074
-0.0005381656
-0.002646998
0.0004931964
-0.002550358
0.001501684
-0.002479033
0.002633494
-0.002810434
0.003768233
-0.002810536
0.004893589
-0.00278574
0.005997482
-0.00273418
0.007080791
-0.002680182
0.008164667
-0.002681493
0.009216275
-0.002601088
0.01028332
-0.002640962
0.01132146
-0.002569048
0.01230641
-0.002436109
0.01329971
-0.00245555
0.01427956
-0.002419676
0.01522481
-0.00233431
0.01616761
-0.002327237
0.01709629
-0.002288785
0.01794653
-0.00209093
0.01879934
-0.002092723
0.01963227
-0.002042852
0.02040879
-0.001899689
0.02119363
-0.001915905
0.02190107
-0.00172334
0.02258387
-0.001651295
0.02321392
-0.001517521
0.02378674
-0.001372279
0.0243671
-0.001382829
0.02489949
-0.001261203
0.02538337
-0.001133856
0.02581611
-0.001000584
0.02619952
-0.000870517
0.0265529
-0.0007889168
0.02683201
-0.000593406
0.02711084
-0.0005775195
0.02733552
-0.0004315269
0.02741861
-4.257778e-05
0.02743929
0.0001854089
0.02743139
0.0003509816
0.02739479
0.0005740779
0.02731137
0.001029024
0.02724894
0.0018075
0.02743575
0.003570989
0.02737743
0.007695952
0.02561097
0.01131562
0.01885427
0.01352625
0.006741327
0.02016074
-0.001532129
0.01960604
-0.0002895644
0.004948256
0.002517724
-0.007479894
0.006415429
-0.01053335
0.00828714
-0.005513364
0.007931515
-0.0008984383
0.006753574
-0.001576294
0.006779182
-0.006652936
0.002853704
0.001951854
-0.006486028
0.02400152
-0.01196899
0.01936662
-0.01186727
0.001275603
-0.01136113
-0.001757612
-0.01000916
-0.003804329
-0.007487589
-0.006762094
-0.004370427
-0.008287765
-0.0003025843
-0.01044434
0.003409543
-0.008616586
0.003521338
-0.0004062118
0.001691709
0.003664573
0.001585224
0.0002754674
0.003861364
-0.005606578
0.006452573
-0.006530987
0.008214631
-0.004409928
0.008360524
0.001720999
0.004763324
0.01173072
-0.0005318737
0.01297399
-0.001178669
0.0009378576
0.001574308
-0.008059438
0.003991624
-0.007232987
0.004455484
-0.002271442
0.0004574401
0.005506356
-0.007742457
0.01390988
0.01572861
-0.01631425
0.01688166
0.007440968
-0.01574634
0.0007321005
-0.01490365
-0.002071446
-0.01360581
-0.003808658
-0.01203718
-0.004778017
-0.01034931
-0.005203327
-0.008642065
-0.005320758
-0.006922625
-0.005423569
-0.005391301
-0.004884178
-0.0040675
-0.004280436
-0.002905135
-0.003807795
-0.002230931
-0.002242347
-0.001645609
-0.001900324
-0.001301655
-0.001174809
-0.0009503032
-0.001296701
-0.0008941824
-0.0004335279
-0.0009411647
0.0003165689
-0.001689506
0.002251394
-0.004348634
0.007288181
-0.006497912
0.007769573
-0.005662537
9.803606e-05
-0.002894423
-0.008441281
-0.0006663662
-0.009211175
0.0006500521
-0.006944982
0.002030931
-0.006719309
0.005224532
-0.01113843
0.009824865
-0.01506592
0.01394871
-0.01318131
0.01174986
0.01110326
0.002860659
0.03682167
-0.008091624
0.03007336
-0.01474494
0.002317869
-0.01884855
-0.0005926529
-0.02002699
-0.003279518
-0.01909593
-0.008821795
-0.01808775
-0.008250539
-0.02032524
0.006813445
-0.02563009
0.02382284
-0.02874741
0.02288437
-0.02844688
0.01217191
-0.02832957
0.006253564
-0.02865342
0.003128169
-0.02890805
0.001641124
-0.02903108
0.0008627842
-0.02906081
0.0004270631
-0.0288902
-0.0002606102
-0.02865125
-0.0005263236
-0.02837378
-0.00068036
-0.02802348
-0.0009195298
-0.02765131
-0.001003449
-0.02719123
-0.001287977
-0.02667467
-0.001476222
-0.02606793
-0.001764136
-0.02542366
-0.00188485
-0.02476214
-0.00195084
-0.02401679
-0.002217518
-0.0232359
-0.002328598
-0.02244841
-0.002357368
-0.0215584
-0.002682088
-0.02063505
-0.002787397
-0.01967025
-0.002919044
-0.01869275
-0.002961276
-0.01768786
-0.003054488
-0.01659887
-0.003310917
-0.01552613
-0.003269409
-0.01438805
-0.003471512
-0.01322078
-0.003565408
-0.0120423
-0.00360025
-0.0108545
-0.003633439
-0.009615479
-0.003792354
-0.00836965
-0.003812847
-0.007109935
-0.003856252
-0.005829111
-0.003928765
-0.004537433
-0.003958233
-0.003272976
-0.003863715
-0.001938041
-0.004093009
-0.0006520673
-0.003932972
0.0005894227
-0.003791848
0.001810686
-0.003700297
0.003172825
-0.004172573
0.004536824
-0.004174534
0.005891757
-0.004140673
0.007218292
-0.004060715
0.008517923
-0.003979812
0.009816304
-0.003979875
0.01107466
-0.003859443
0.01235347
-0.003919778
0.01359493
-0.0038105
0.01477596
-0.003617142
0.01596849
-0.003648086
0.01714329
-0.003594475
0.01828042
-0.003471439
0.0194168
-0.003463618
0.02053341
-0.003405389
0.02156016
-0.003117686
0.02259085
-0.003123416
0.02359678
-0.003048777
0.02453772
-0.002840633
0.02548923
-0.002867413
0.02634918
-0.002583291
0.02717967
-0.002481781
0.02794821
-0.002286061
0.02865187
-0.002075942
0.02936422
-0.002095175
0.03001933
-0.00191632
0.03061944
-0.001733959
0.03115732
-0.001538466
0.03163958
-0.001352784
0.03208756
-0.001236889
0.03244844
-0.0009542851
0.03280961
-0.0009386918
0.03311045
-0.0007323644
0.03324219
-0.0001743211
0.03328668
0.0001409215
0.03328081
0.0003568443
0.03321992
0.0006349749
0.03302902
0.001219925
0.0327187
0.002117812
0.03246433
0.003825368
0.03267094
0.007489342
0.03295663
0.01102992
0.02997399
0.01650889
0.01912409
0.03101064
0.008608078
0.03012205
0.007250923
0.006305412
0.01204544
-0.01227441
0.01604349
-0.01453139
0.01750657
-0.006976446
0.01657798
3.015694e-05
0.01360466
0.001397021
0.009872081
-0.002920352
0.001892386
0.009931549
-0.007257175
0.03315108
-0.01221061
0.02432005
-0.01253391
0.001598898
-0.0120808
-0.002210722
-0.0107213
-0.005163827
-0.00790731
-0.009576082
-0.004504858
-0.01169022
-0.0001427835
-0.01480641
0.003885042
-0.01264441
0.003680037
-0.0002012073
0.00153388
0.005810731
0.001845656
-3.630893e-05
0.004639972
-0.008400894
0.007641179
-0.009532194
0.009712898
-0.006481648
0.01000499
0.001428907
0.007528085
0.01420763
0.003057153
0.01744493
0.001046194
0.002948817
0.002522816
-0.009536061
0.0039986
-0.00870877
0.001706336
2.082113e-05
-0.005900705
0.0131134
-0.01410035
0.02210953
0.01850992
-0.01856093
0.01951111
0.006490793
-0.01800266
0.0001738308
-0.0169192
-0.003154906
-0.01535442
-0.005373438
-0.01344994
-0.006682499
-0.011397
-0.007256269
-0.009325711
-0.007392045
-0.007246619
-0.007502661
-0.005416242
-0.006714554
-0.003886106
-0.005810573
-0.002620087
-0.005073813
-0.001961963
-0.002900471
-0.001341783
-0.002520504
-0.0009991703
-0.001517422
-0.0007143245
-0.001581547
-0.0007949978
-0.0003528545
-0.00108267
0.0006042416
-0.00155818
0.002726904
-0.003944336
0.009674338
-0.006179596
0.01000483
-0.005470562
-0.0006109982
-0.00302795
-0.01088389
-0.001392376
-0.01084675
-0.0008147937
-0.007522564
0.0004577095
-0.007991812
0.003969986
-0.0146507
0.008954646
-0.02005058
0.0138216
-0.01804826
0.01099925
0.0139256
0.002379093
0.04544183
-0.01049769
0.04295014
-0.02149419
0.01331437
-0.02775661
0.005669772
-0.03035748
-0.0006786549
-0.0317297
-0.007449573
-0.03340901
-0.006571231
-0.03509895
0.008503391
-0.03536933
0.02409322
-0.03412255
0.02163759
-0.03340072
0.01145008
-0.03372508
0.006577926
-0.0341159
0.003518996
-0.03441172
0.001936944
-0.0345625
0.00101356
-0.03463818
0.0005027429
-0.03445694
-0.0004418459
-0.03419824
-0.000785032
-0.03388959
-0.000989001
-0.0334802
-0.001328927
-0.03306033
-0.001423315
-0.03251881
-0.001829497
-0.03191586
-0.002079171
-0.03119694
-0.002483056
-0.03043388
-0.002647919
-0.02965354
-0.002731172
-0.02876496
-0.003106104
-0.02783419
-0.003259362
-0.02689908
-0.003292481
-0.02583745
-0.003743724
-0.02473279
-0.00389205
-0.02357919
-0.004072648
-0.02241259
-0.004127878
-0.02121261
-0.004254465
-0.01990573
-0.004617792
-0.01862549
-0.004549648
-0.01726081
-0.004836195
-0.01586482
-0.0049614
-0.01445336
-0.005011713
-0.01303318
-0.005053613
-0.01154824
-0.005277296
-0.01005497
-0.005306122
-0.008542511
-0.005368708
-0.007008783
-0.005462493
-0.00546062
-0.005506397
-0.003947161
-0.005377173
-0.002341329
-0.005698841
-0.0007899012
-0.0054844
0.0007073038
-0.005289053
0.002186405
-0.005179397
0.003828764
-0.005814933
0.005468593
-0.005814363
0.007099723
-0.005771803
0.008687317
-0.00564831
0.01023724
-0.005529734
0.01178539
-0.005528028
0.01328508
-0.005359129
0.01481551
-0.005450213
0.01629532
-0.005290307
0.01771036
-0.005032185
0.01914208
-0.005079804
0.02054421
-0.004996604
0.02190719
-0.004834412
0.02327439
-0.004830821
0.02460788
-0.004738879
0.02583659
-0.004346393
0.02707238
-0.004359207
0.02827444
-0.004250842
0.02939522
-0.003961406
0.03053516
-0.004007354
0.03155859
-0.003606722
0.03254671
-0.003469903
0.033459
-0.00319835
0.0342898
-0.002906746
0.03513464
-0.002940013
0.03590286
-0.002684542
0.03661044
-0.002441535
0.03723578
-0.002163811
0.03779443
-0.001911427
0.03831618
-0.001758644
0.03871764
-0.001355746
0.03912963
-0.001350674
0.03946211
-0.001064853
0.03958608
-0.0002982893
0.03960829
0.0001187114
0.03956889
0.0003962518
0.03946121
0.0007426517
0.03922813
0.001453
0.03888451
0.00246144
0.03849313
0.004216743
0.03827187
0.007710607
0.03837944
0.01092234
0.03860088
0.01628745
0.03447891
0.03513261
0.0274088
0.03719216
0.0242801
0.009434112
0.02645675
-0.01445106
0.0282427
-0.01631734
0.0283914
-0.007125148
0.02665789
0.001763661
0.02227248
0.00578243
0.01475146
0.004600672
0.002972913
0.0217101
-0.006757265
0.04288126
-0.01220101
0.0297638
-0.01287459
0.00227248
-0.01240288
-0.002682428
-0.01093667
-0.006630043
-0.007680046
-0.01283271
-0.003993539
-0.01537672
0.0002958312
-0.01909578
0.004204035
-0.01655262
0.00352469
0.0004781379
0.00126409
0.00807133
0.002143203
-0.0009154211
0.005488783
-0.01174647
0.008966077
-0.01300949
0.01154707
-0.009062637
0.01181602
0.001159949
0.01013832
0.01588533
0.006589957
0.02099329
0.003279498
0.006259275
0.002780342
-0.009036904
0.0008157388
-0.006744167
-0.005390286
0.006226846
-0.01421944
0.02194255
-0.01952272
0.0274128
0.0184983
-0.02129775
0.02206668
0.005721868
-0.0206455
-0.000478419
-0.01942475
-0.004375654
-0.01754463
-0.007253556
-0.01520194
-0.009025193
-0.01264236
-0.009815855
-0.01005146
-0.009982941
-0.007432349
-0.01012177
-0.005108109
-0.009038793
-0.003142198
-0.007776484
-0.001625972
-0.00659004
-0.001032393
-0.003494049
-0.0004964751
-0.003056422
-0.0001546768
-0.00185922
-1.059783e-05
-0.001725626
-0.0003656082
2.15584e-06
-0.0008461716
0.001084805
-0.001007717
0.002888449
-0.002872979
0.0115396
-0.005272255
0.01240411
-0.005238723
-0.0006445298
-0.003521983
-0.01260063
-0.002907292
-0.01146144
-0.003327762
-0.007102094
-0.002664773
-0.008654801
0.001171613
-0.01848709
0.005964352
-0.02484332
0.01162843
-0.02371234
0.008303735
0.0172503
0.0001810623
0.0535645
-0.0146057
0.0577369
-0.02789286
0.02660153
-0.03436423
0.01214114
-0.03751861
0.002475726
-0.04029551
-0.004672671
-0.04338934
-0.003477396
-0.04458228
0.00969633
-0.04249344
0.02200438
-0.04035655
0.0195007
-0.04031017
0.0114037
-0.040787
0.007054752
-0.04119897
0.003930968
-0.04153844
0.002276413
-0.04166924
0.001144362
-0.04172178
0.0005552822
-0.04146086
-0.0007027717
-0.04113873
-0.00110716
-0.04075127
-0.001376456
-0.04023379
-0.001846411
-0.03972841
-0.001928696
-0.03906406
-0.002493843
-0.0383354
-0.002807837
-0.03746284
-0.00335561
-0.03653746
-0.003573304
-0.03559911
-0.003669522
-0.03452413
-0.004181085
-0.03340204
-0.00438145
-0.03228205
-0.004412468
-0.0310052
-0.005020575
-0.02967241
-0.005224835
-0.0282871
-0.005457959
-0.02688671
-0.005528272
-0.0254495
-0.00569168
-0.02387402
-0.006193262
-0.02234575
-0.006077923
-0.02070442
-0.006477526
-0.01903066
-0.006635156
-0.01733822
-0.006704149
-0.01564031
-0.006751531
-0.01386385
-0.007053756
-0.01208075
-0.007089222
-0.01026585
-0.007183606
-0.008430096
-0.007298245
-0.006567421
-0.007369072
-0.004763013
-0.007181582
-0.002836314
-0.007625539
-0.0009576606
-0.007363053
0.0008521301
-0.007098843
0.002645048
-0.006972315
0.004630423
-0.007800307
0.006604989
-0.007788929
0.008555144
-0.007721959
0.01043942
-0.007532585
0.0122798
-0.007370119
0.01412461
-0.007372838
0.01591594
-0.007150454
0.01775774
-0.007292017
0.01952519
-0.007057756
0.02122901
-0.006736005
0.02295934
-0.006810135
0.02463662
-0.006673878
0.02627298
-0.006470774
0.02793147
-0.006489316
0.02952904
-0.006336447
0.03100263
-0.005819984
0.03249226
-0.005848832
0.03393842
-0.005697
0.03528144
-0.005304432
0.0366573
-0.005383207
0.03788966
-0.00483909
0.03908038
-0.004660618
0.04017781
-0.004295778
0.04118275
-0.003911692
0.04221029
-0.003967555
0.04313507
-0.003609319
0.04400196
-0.003308426
0.04476004
-0.002921893
0.04544722
-0.002598599
0.04609114
-0.002402567
0.04659413
-0.001858734
0.04710796
-0.001864504
0.04751695
-0.001473846
0.04771042
-0.000491765
0.04776699
6.214169e-05
0.04776324
0.0004000104
0.04768476
0.0008211304
0.04742705
0.001710704
0.0470461
0.002842394
0.04656372
0.004699117
0.04614542
0.008128905
0.04542661
0.01164116
0.04606862
0.01564545
0.04813241
0.03306881
0.0475976
0.03772698
0.04451115
0.01252057
0.04251421
-0.01245413
0.04091365
-0.01471678
0.03913913
-0.005350636
0.03642034
0.004482451
0.03125445
0.01094832
0.02113344
0.01472168
0.006441677
0.03640186
-0.004879662
0.0542026
-0.01171069
0.03659482
-0.01268374
0.003245535
-0.01231881
-0.003047361
-0.01056267
-0.008386185
-0.006659927
-0.01673544
-0.002666481
-0.01937017
0.001080211
-0.02284247
0.004375493
-0.0198479
0.0030625
0.001791131
0.0008645679
0.01026926
0.002338952
-0.002389805
0.006399106
-0.01580663
0.01053229
-0.01714268
0.01375633
-0.01228667
0.01387582
0.001040458
0.01242516
0.01733599
0.009329933
0.02408852
0.004812718
0.01077649
0.001385028
-0.005609215
-0.005072786
-0.0002863528
-0.01488381
0.01603787
-0.02213664
0.02919538
-0.02358573
0.0288619
0.01697925
-0.02492145
0.02527907
0.005364251
-0.02427043
-0.001129437
-0.02290335
-0.005742743
-0.02062937
-0.00952753
-0.01774521
-0.01190936
-0.01452623
-0.01303483
-0.01123998
-0.01326919
-0.007857285
-0.01350447
-0.004883998
-0.01201208
-0.002215973
-0.01044451
-4.19002e-05
-0.008764113
0.0008240442
-0.004359994
0.001198997
-0.003431374
0.001424373
-0.002084596
0.001429922
-0.001731175
0.000704896
0.0007271822
-8.349774e-05
0.001873199
-0.0003055407
0.003110492
-0.001428672
0.01266273
-0.003578974
0.01455441
-0.004774648
0.0005511439
-0.004571556
-0.01280372
-0.00559465
-0.01043835
-0.007249363
-0.005447381
-0.007564266
-0.008339898
-0.004779389
-0.02127197
-0.0006556457
-0.02896706
0.005773982
-0.03014197
0.002670169
0.02035411
-0.007048842
0.06328351
-0.0214335
0.07212156
-0.03460482
0.03977285
-0.04029792
0.01783425
-0.04373206
0.005909856
-0.04710469
-0.001300032
-0.05068206
9.996757e-05
-0.05194163
0.01095591
-0.0499799
0.02004264
-0.0483907
0.0179115
-0.04855133
0.01156433
-0.04890725
0.007410673
-0.04931301
0.004336726
-0.04972457
0.002687976
-0.04984245
0.00126224
-0.04998476
0.0006975902
-0.04966354
-0.001023986
-0.04928994
-0.001480765
-0.04883866
-0.001827736
-0.04819812
-0.00248695
-0.04762834
-0.002498479
-0.04681745
-0.003304731
-0.04596102
-0.003664261
-0.04491529
-0.004401342
-0.04379976
-0.00468884
-0.04268667
-0.004782606
-0.04140207
-0.005465683
-0.04005608
-0.005727443
-0.03871173
-0.005756818
-0.03719016
-0.006542148
-0.03559376
-0.006821234
-0.03393487
-0.007116845
-0.0322376
-0.00722554
-0.03053964
-0.007389646
-0.02863087
-0.008102028
-0.0268121
-0.007896694
-0.02483124
-0.008458388
-0.02282787
-0.008638526
-0.0208045
-0.008727519
-0.01873914
-0.008816885
-0.01662817
-0.009164726
-0.01450523
-0.009212164
-0.01233243
-0.00935641
-0.01015813
-0.009472541
-0.00788484
-0.009642365
-0.005754357
-0.009312065
-0.003444679
-0.009935217
-0.001163977
-0.009643756
0.001033229
-0.009296049
0.003208585
-0.00914767
0.005610984
-0.01020271
0.007987044
-0.01016499
0.01027455
-0.01000947
0.0125042
-0.009762233
0.01470715
-0.009573069
0.01691124
-0.009576931
0.01905955
-0.00929876
0.0212988
-0.009531269
0.02341805
-0.009177008
0.02546186
-0.008779809
0.02754193
-0.008890213
0.02956802
-0.008699968
0.03153573
-0.008438481
0.03351847
-0.008472053
0.03543736
-0.008255335
0.03719918
-0.007581804
0.03898315
-0.007632807
0.04069653
-0.007410378
0.0423201
-0.006928005
0.04397128
-0.007034382
0.04543682
-0.006304635
0.04687555
-0.006099344
0.04817115
-0.005591383
0.04937355
-0.005114088
0.05060921
-0.005203217
0.05169455
-0.004694662
0.0527423
-0.004356176
0.05362408
-0.003803672
0.05444503
-0.003419548
0.05521887
-0.003176401
0.05578899
-0.00242886
0.05640025
-0.002475759
0.05690765
-0.001981253
0.05710082
-0.000684927
0.0571534
9.559973e-06
0.05709933
0.0004540804
0.05698286
0.0009376005
0.05666452
0.002029041
0.05626711
0.003239801
0.05576952
0.005196706
0.05542879
0.008469634
0.05468332
0.01238663
0.05454136
0.01578741
0.05874348
0.02886669
0.06248311
0.03398735
0.0598373
0.01516637
0.05515157
-0.007768394
0.05119967
-0.01076488
0.04799291
-0.002143874
0.04452695
0.007948407
0.03940416
0.01607112
0.02865097
0.02547487
0.01248998
0.05256285
-0.001272448
0.06796503
-0.009398363
0.04472074
-0.01123519
0.005082368
-0.01167689
-0.002605667
-0.00948836
-0.01057471
-0.00483949
-0.02138431
-0.0006564327
-0.02355323
0.00214963
-0.02564854
0.004426452
-0.02212472
0.00238032
0.003837263
0.0001985693
0.01245101
0.002097976
-0.004289211
0.007414359
-0.02112301
0.01242081
-0.02214913
0.01639826
-0.01626412
0.01631103
0.001127688
0.01445639
0.01919063
0.01098903
0.02755588
0.005066058
0.01669946
-0.002284933
0.001741776
-0.01344104
0.01086976
-0.02399192
0.02658875
-0.0281546
0.03335806
-0.02686336
0.02757066
0.01539495
-0.02981512
0.02981999
0.005359376
-0.02915237
-0.001792184
-0.02756251
-0.0073326
-0.02481046
-0.01227958
-0.02128276
-0.01543705
-0.01725653
-0.01706107
-0.01314535
-0.01738036
-0.008713052
-0.01793677
-0.004949226
-0.01577591
-0.001596041
-0.01379769
0.001781797
-0.01214195
0.003349689
-0.005927887
0.003879539
-0.003961224
0.003976325
-0.002181383
0.00367811
-0.00143296
0.002377833
0.002027459
0.0009895856
0.003261446
0.0003463657
0.003753713
-4.075629e-05
0.01304985
-0.00146773
0.01598138
-0.004514979
0.003598392
-0.007311752
-0.01000695
-0.01046373
-0.007286367
-0.01316249
-0.002748626
-0.01491787
-0.006584513
-0.01382935
-0.02236049
-0.01141782
-0.0313786
-0.004992457
-0.03656733
-0.008532632
0.02389429
-0.01894708
0.07369796
-0.03189106
0.08506554
-0.04272279
0.05060457
-0.04777388
0.02288534
-0.05184454
0.009980508
-0.05559672
0.002452148
-0.05931736
0.003820615
-0.06091196
0.0125505
-0.05964302
0.01877371
-0.05844944
0.01671792
-0.05857471
0.0116896
-0.05893751
0.007773476
-0.059305
0.004704214
-0.05982733
0.003210307
-0.05984895
0.001283862
-0.05996044
0.0008090773
-0.05959626
-0.001388167
-0.05912787
-0.001949148
-0.05864191
-0.002313695
-0.0577983
-0.003330562
-0.05715216
-0.003144616
-0.05616636
-0.004290535
-0.05516624
-0.00466438
-0.05389182
-0.005675765
-0.05252357
-0.006057085
-0.05121202
-0.006094155
-0.04970064
-0.006977071
-0.0480275
-0.007400575
-0.04641946
-0.007364859
-0.04462145
-0.008340159
-0.04272493
-0.008717762
-0.04070338
-0.009138395
-0.03864427
-0.009284642
-0.03670018
-0.009333741
-0.03432554
-0.01047667
-0.03219363
-0.0100286
-0.02974303
-0.01090899
-0.02739574
-0.01098582
-0.02497897
-0.01114428
-0.02245901
-0.01133685
-0.01996652
-0.01165722
-0.01739824
-0.01178044
-0.01477755
-0.0119771
-0.01223663
-0.01201346
-0.009470001
-0.012409
-0.006984699
-0.01179737
-0.00418028
-0.01273964
-0.001428786
-0.01239525
0.001256416
-0.01198125
0.003918065
-0.01180932
0.006844385
-0.01312903
0.009583923
-0.01290453
0.01224623
-0.01267178
0.01493283
-0.01244883
0.01762398
-0.01226422
0.0202843
-0.01223725
0.02283512