/*--------------------------------*- C++ -*----------------------------------*\
| =========                 |                                                 |
| \\      /  F ield         | OpenFOAM: The Open Source CFD Toolbox           |
|  \\    /   O peration     | Version:  2406                                  |
|   \\  /    A nd           | Website:  www.openfoam.com                      |
|    \\/     M anipulation  |                                                 |
\*---------------------------------------------------------------------------*/
FoamFile
{
    version     2.0;
    format      ascii;
    arch        "LSB;label=32;scalar=64";
    class       volScalarField;
    location    "0.3";
    object      p;
}
// * * * * * * * * * * * * * * * * * * * * * * * * * * * * * * * * * * * * * //

dimensions      [0 2 -2 0 0 0 0];

internalField   nonuniform List<scalar> 
4529
(
-2.699498e-07
-1.173645e-07
5.740822e-08
1.187143e-08
-5.126511e-07
5.817244e-09
-9.654447e-07
3.275426e-08
-6.206742e-07
-4.867476e-10
-3.36959e-07
2.414197e-08
2.115863e-08
1.328551e-08
-9.614858e-08
-1.381111e-07
1.136623e-07
-7.479013e-07
-1.673692e-07
2.915836e-07
-6.01678e-07
-1.939734e-07
-3.574756e-07
-2.235034e-07
-4.162077e-08
7.443572e-08
1.314893e-08
-3.471322e-07
1.717823e-09
-1.210926e-07
-4.303689e-07
-2.097293e-07
-4.044203e-09
1.876132e-09
-3.255071e-07
-5.298068e-07
1.103411e-08
-1.124163e-07
-3.292378e-09
1.676216e-08
1.28308e-08
-3.924948e-08
-1.095667e-07
-2.620739e-07
-8.016621e-08
-6.965179e-08
-1.5518e-07
-1.860163e-07
-2.575516e-07
-6.59165e-07
-8.676985e-08
-2.038524e-08
-1.708121e-07
-1.192998e-08
4.032072e-08
2.190997e-07
6.375202e-08
-3.28211e-07
-4.708374e-07
-4.530945e-07
2.02133e-08
-8.12824e-08
-8.180444e-07
-2.938646e-07
1.159566e-08
-9.916854e-08
-8.616471e-09
-5.912137e-08
-9.374958e-08
-6.67136e-07
-3.895311e-07
-4.332969e-09
-1.965382e-07
3.531895e-08
-1.914583e-07
-6.976243e-09
-1.616287e-08
-1.206287e-07
-1.106504e-07
1.300837e-07
-3.600655e-07
2.51942e-08
-4.402224e-07
1.301635e-08
-5.622552e-07
-7.996319e-07
-3.717739e-07
-3.206548e-07
-4.193682e-09
3.704214e-08
-1.860956e-07
-3.185488e-07
-1.157757e-07
-4.115731e-07
-6.122686e-07
-1.090516e-06
-7.947159e-07
-5.092928e-07
-1.960114e-07
-3.478717e-07
-1.091213e-07
-8.509172e-08
-1.738628e-08
-4.674627e-07
-3.276664e-07
-1.027817e-07
-9.552509e-08
1.244899e-08
-9.545419e-08
-2.881484e-07
-2.557851e-10
-1.448387e-07
-7.542321e-07
-3.223555e-07
9.538716e-08
-2.354326e-08
-1.228802e-07
-2.764012e-07
-7.849386e-07
-7.351749e-08
-7.112986e-08
-6.307592e-09
-5.366908e-08
-1.342783e-07
3.016533e-08
-1.028056e-06
1.597362e-08
-3.348385e-08
-1.4167e-08
-3.682924e-08
2.469967e-09
-1.387584e-07
-1.117774e-07
-3.032841e-07
-4.139611e-07
-1.537143e-08
-1.442786e-08
-7.93488e-07
-9.197381e-08
-5.109908e-08
4.299624e-08
7.573063e-09
-3.756949e-07
-2.806985e-08
-4.462761e-08
1.411455e-07
-6.293034e-07
-9.326161e-07
-8.779857e-08
-8.271925e-07
-1.557337e-08
-5.323322e-08
-3.448916e-09
-1.313395e-07
-8.474169e-07
-5.88397e-07
-3.61751e-08
6.850831e-09
9.641163e-08
6.024895e-09
-2.614339e-08
-9.964884e-08
-2.802201e-07
-1.365434e-07
-3.976612e-08
-3.131117e-07
-8.70023e-07
9.962685e-08
-4.260159e-07
3.424423e-08
-6.791013e-08
-3.497978e-07
-1.065991e-06
-6.94976e-08
-2.76512e-07
-5.613338e-07
1.332826e-08
-1.885463e-07
-1.926048e-08
-7.929574e-07
-4.893816e-08
-2.091806e-07
-1.729915e-07
2.774703e-08
-1.15939e-07
1.627014e-07
9.977811e-08
-1.316242e-07
-8.819098e-08
-6.898075e-07
-1.294035e-07
-9.715052e-08
1.050816e-08
-2.216583e-07
-1.923352e-07
-1.44045e-07
-3.874439e-07
4.778001e-08
-1.509568e-07
-1.835848e-07
-1.21977e-07
-1.345108e-07
-9.616951e-08
-2.637348e-07
5.246903e-08
-1.805575e-07
-1.433945e-07
-8.683709e-08
2.020506e-08
-9.021727e-07
-8.352618e-07
-3.208685e-08
-2.315931e-07
-5.675121e-07
-6.776636e-08
-7.082945e-08
-7.703726e-07
-3.583287e-07
-9.392012e-07
-5.909849e-07
5.467898e-08
-4.768067e-07
-3.64304e-08
7.470222e-08
-4.755751e-07
-3.933677e-07
-2.417057e-07
-3.442773e-07
-1.482276e-07
-1.634318e-07
-9.725645e-07
-9.312884e-08
2.750826e-10
-3.569587e-07
-7.677591e-08
-6.172846e-08
-8.430031e-09
-3.23891e-08
-2.82867e-07
-8.655387e-09
2.565616e-08
-3.223617e-07
5.165197e-08
-2.892841e-07
-3.067984e-07
-3.808259e-07
-2.828101e-07
-1.052359e-06
-4.612029e-08
-3.799654e-08
-1.648979e-07
-2.173466e-07
-7.694147e-07
-9.361469e-09
-4.586504e-07
-1.55881e-08
3.660304e-08
-6.47487e-08
-5.081588e-08
-5.127841e-07
-1.865701e-07
-1.161555e-07
-3.635157e-07
-2.482648e-08
-1.768717e-09
-3.77705e-09
-2.782563e-08
-1.438749e-07
-9.781322e-08
-5.7444e-08
-3.71606e-07
-3.539612e-07
-7.853827e-08
-2.747577e-07
2.621995e-09
-5.60329e-07
-2.577578e-07
2.195127e-08
-2.702951e-07
1.809086e-08
2.527943e-08
-1.912642e-08
1.491585e-08
6.328871e-08
1.016367e-07
-5.980171e-07
2.779297e-08
-1.973145e-07
-2.227791e-07
4.108354e-07
-7.507967e-07
5.305673e-07
-1.176515e-09
4.825034e-09
-2.659924e-08
-2.6255e-07
-2.635869e-07
2.552032e-08
-8.617689e-07
-7.385211e-07
-8.447227e-08
-3.350469e-07
-3.846041e-07
-3.768001e-07
-2.319816e-07
3.148695e-07
-1.055496e-07
-1.022598e-06
-4.44995e-07
-8.34147e-08
6.755042e-08
-7.779221e-08
-7.060432e-07
-2.201632e-07
-2.059807e-07
-1.379281e-07
1.293285e-08
-4.065965e-07
-6.161594e-07
6.726819e-08
-2.351088e-09
3.178266e-08
-8.707303e-08
-1.074478e-07
-4.871043e-10
-4.624308e-08
-3.819022e-07
-9.656815e-08
-1.031747e-07
-1.693922e-07
-1.654306e-07
-7.934462e-08
5.122432e-09
-2.649742e-07
6.098687e-08
-7.431444e-08
3.144307e-08
-1.286498e-07
-2.325134e-07
5.742105e-09
-4.39866e-08
-9.593203e-07
-7.167268e-07
-1.774858e-07
-2.715935e-07
-1.706832e-07
1.287688e-08
1.011141e-08
-6.879397e-07
-1.896275e-08
5.882175e-09
1.301919e-08
-1.005156e-06
-7.076188e-08
-1.709357e-08
4.717775e-07
-4.24387e-08
-1.181612e-07
-2.714864e-08
-9.415344e-08
9.215462e-09
-2.979304e-07
-1.685361e-07
-5.933077e-07
-3.872944e-07
-3.696458e-08
-1.001877e-07
-2.132706e-07
6.235134e-08
-5.869774e-07
-2.625373e-07
-6.259762e-07
-2.883556e-07
3.855766e-08
8.553615e-08
-4.528551e-07
-2.972746e-07
1.678479e-08
1.527923e-08
-1.536178e-07
-1.893858e-07
4.795185e-07
4.253279e-08
-3.172199e-08
-6.478257e-08
-6.880217e-08
-2.007328e-08
-1.91804e-07
-4.44153e-07
7.292282e-08
-6.035085e-07
-1.09709e-07
-1.700714e-07
-1.504098e-08
1.198999e-07
-6.833432e-08
2.004374e-07
-5.122673e-08
-6.418288e-09
3.101849e-08
-1.164718e-07
-2.55006e-08
-1.792497e-07
-8.75548e-08
-8.664992e-07
7.748124e-08
-9.789814e-08
-1.777143e-07
1.587049e-09
-3.963168e-07
-3.276628e-08
-2.901383e-07
-5.2654e-07
1.335562e-07
-1.817704e-07
-6.478446e-08
3.405504e-08
-7.095349e-08
5.574975e-07
-1.346571e-07
-8.78816e-08
-7.071333e-08
-3.639445e-08
-4.727008e-09
-1.82498e-08
1.06003e-07
-9.051695e-07
1.722716e-07
-7.901532e-07
-7.499454e-07
-1.455891e-07
-4.821655e-07
-8.42655e-08
-5.159045e-07
6.817523e-08
-7.663291e-09
-5.559893e-07
-1.163166e-07
-9.763867e-08
-1.764895e-08
2.226886e-09
-5.814742e-09
-1.101432e-08
-1.033099e-07
-2.10339e-07
2.380163e-08
-6.147383e-07
-5.792204e-07
-5.132885e-08
-1.415739e-07
-1.342246e-07
-1.110056e-07
-8.409613e-08
-9.422856e-08
-5.686092e-08
-1.630554e-07
-1.492565e-07
-9.185478e-08
-8.084749e-08
-1.596959e-07
-1.154589e-08
-1.159934e-07
-1.216087e-07
-7.752891e-08
-4.743854e-07
-2.341985e-07
-7.660523e-07
1.262314e-08
4.452173e-08
4.971122e-09
-1.837755e-07
-1.902645e-09
-4.206759e-09
7.316383e-08
-1.93513e-07
-5.717755e-07
-6.489768e-07
-7.596713e-07
1.485717e-09
4.127217e-08
-2.152145e-07
-1.622199e-08
-7.085037e-09
-3.818431e-07
-2.292631e-08
-8.207802e-07
-1.779059e-07
-7.633784e-08
-9.124273e-07
4.000668e-09
-3.634514e-08
1.305791e-08
2.140214e-08
-2.720488e-07
-3.672996e-07
-4.607448e-07
-5.006515e-07
-6.44748e-07
-4.219772e-09
-1.959136e-09
-1.841334e-07
-7.893803e-07
-3.486238e-08
-4.631272e-08
9.256936e-09
8.830471e-09
-8.889943e-08
-7.720561e-08
2.795507e-08
-7.84546e-07
-1.597786e-07
-2.940861e-08
-7.962633e-08
-2.957626e-07
-2.247253e-07
-5.60967e-07
-1.788033e-07
-7.863797e-08
-1.651674e-07
-4.35016e-07
5.408058e-07
-5.103212e-07
-1.694791e-07
6.217713e-07
1.527184e-07
1.271467e-08
1.263611e-07
-2.878404e-07
-2.493696e-07
-2.495712e-07
-4.994208e-07
-5.668004e-07
-5.474045e-07
-9.237033e-08
-7.290155e-08
1.905047e-08
-4.983467e-08
-2.58758e-08
-3.882972e-08
-4.089378e-08
-3.064652e-08
-5.455629e-08
-1.742083e-07
-1.270818e-08
-7.919567e-09
6.95266e-08
-4.524035e-08
-1.375901e-07
-4.607203e-07
-2.741355e-07
-2.632549e-07
-2.622032e-07
-2.06631e-07
-2.105259e-07
2.27683e-08
-4.716992e-08
-2.799651e-07
-8.133526e-07
-4.131147e-07
-3.328976e-07
-3.564318e-08
-3.506118e-08
-1.525991e-07
-3.999005e-07
-6.870499e-09
-1.98748e-07
-1.793325e-07
-1.659016e-07
-1.131005e-07
1.546708e-09
-2.404483e-07
-1.613287e-07
-7.11286e-09
-5.445951e-07
8.194587e-08
-3.063636e-07
-7.406965e-08
-8.609855e-07
3.478818e-07
-1.857635e-07
-1.203533e-10
-2.637165e-09
-4.876346e-07
-1.725913e-07
-4.972939e-07
1.549281e-08
-1.3263e-08
-4.5262e-09
-7.1502e-07
-1.098278e-07
-3.524707e-08
-6.371988e-09
-3.880667e-08
-5.497171e-08
-4.983772e-08
-4.434156e-08
5.648852e-08
3.753594e-08
1.74098e-07
-6.525649e-07
-5.901693e-07
-3.736683e-09
1.36322e-07
-3.026418e-07
1.047146e-08
-1.613117e-08
-1.97762e-08
1.225816e-07
-1.093704e-07
4.212147e-08
-1.136571e-07
1.228535e-07
-8.668466e-07
-3.465553e-07
-1.687867e-08
-4.602093e-07
-2.03732e-08
1.340255e-08
-1.15027e-07
4.12597e-07
-1.072075e-07
-6.053303e-07
-3.818186e-07
-2.57402e-07
-3.632122e-07
-2.483528e-07
-2.058883e-07
1.789669e-07
1.328829e-08
-1.580032e-07
2.236049e-07
-1.840135e-08
-2.536134e-07
-1.470305e-07
3.173417e-08
-8.414682e-08
-1.678068e-08
-1.52827e-07
-2.013623e-07
-9.320145e-08
-1.941222e-07
-3.568234e-08
4.569645e-08
4.465181e-07
-4.017488e-07
3.15847e-08
-6.624554e-08
-5.716834e-07
2.253601e-08
1.680264e-08
5.308678e-08
-5.330329e-07
-2.475803e-07
-2.355312e-07
-2.427733e-07
-5.718501e-07
-1.774276e-08
-2.300924e-08
-8.583663e-09
-4.51097e-07
-4.704183e-07
-1.728652e-07
-5.20283e-07
-5.024353e-07
-5.000447e-07
-7.483154e-09
-9.51536e-07
5.371467e-08
-4.625267e-08
-1.08103e-09
-7.143401e-08
-6.194714e-07
-2.406729e-07
7.386446e-09
-2.13447e-08
-9.445809e-08
-5.60532e-08
1.879795e-08
-1.394117e-08
-2.312525e-09
-5.140719e-07
-1.018479e-07
-2.481103e-07
-8.439498e-08
-7.793593e-08
-5.582452e-08
-2.932283e-07
5.593104e-08
1.076551e-08
-7.662461e-07
3.040267e-08
4.620419e-08
4.356132e-08
-1.393556e-08
-5.476961e-08
-1.33978e-07
3.333607e-08
-1.615004e-07
-1.897139e-07
-1.052001e-07
-1.936814e-07
-1.026525e-07
-3.180172e-07
-2.420335e-08
-3.100794e-07
1.100545e-07
-1.383535e-07
-2.42681e-07
-8.189803e-09
-4.839634e-07
-3.173718e-07
-2.921905e-07
-1.483079e-07
-1.584987e-07
-3.584019e-07
-3.563975e-07
-1.820688e-07
-8.184143e-08
6.644071e-09
-2.943251e-07
-2.003884e-07
-1.892993e-08
-2.444364e-07
-7.022413e-07
-2.098581e-07
-9.968095e-07
-1.415445e-07
2.058132e-08
-1.95146e-08
-5.601836e-08
-8.899609e-08
-5.868202e-08
-7.798612e-08
-8.766093e-08
2.910043e-07
-4.403049e-07
-1.711657e-07
-5.704316e-07
2.051705e-08
-1.452397e-08
7.03641e-09
2.055367e-08
-4.925487e-08
-9.223902e-08
8.770576e-08
4.54871e-08
-5.121746e-08
-3.457252e-08
-3.567787e-07
-4.552056e-07
-4.071254e-07
-5.271996e-09
4.36949e-08
-3.678437e-08
-3.120275e-08
-4.678376e-08
-2.562899e-08
-5.372984e-08
-2.355041e-08
-2.977602e-08
-6.673742e-08
2.462423e-08
-2.821674e-07
-4.931437e-08
-1.945424e-09
-5.344209e-07
-2.828409e-07
-2.637202e-07
-2.194782e-08
-7.851346e-09
-3.778011e-09
1.415503e-08
-8.263954e-09
3.790828e-09
-1.420633e-08
-6.782201e-08
1.129991e-07
-3.672445e-07
-4.628575e-07
-9.385237e-07
-7.441199e-07
-7.658669e-08
-3.383389e-07
-3.965942e-07
-3.212546e-07
-2.172578e-07
-7.321916e-07
-5.932595e-07
-8.232219e-07
-7.28569e-07
-8.683297e-07
-9.696823e-07
-4.234804e-07
-4.23369e-07
-4.72239e-07
-4.217437e-07
-3.291323e-08
-5.656464e-08
1.697163e-08
-5.387779e-08
2.47781e-08
-6.41825e-07
-5.820939e-07
1.033225e-09
-4.927606e-08
-2.748562e-08
-5.337418e-08
-3.837614e-07
-4.290341e-09
-3.974563e-08
6.227821e-10
-9.858682e-08
-1.521627e-08
-4.528559e-07
-2.997229e-07
-3.050153e-08
-9.117472e-08
-3.725317e-07
-4.630284e-07
-3.030757e-07
-3.855675e-07
-2.485922e-07
3.933637e-08
-1.007034e-08
-3.310037e-07
-2.401743e-07
1.312764e-07
-2.515586e-07
-6.942709e-09
1.752835e-08
-2.478868e-07
2.318025e-07
1.751552e-08
7.921909e-09
-9.202118e-07
-2.79301e-08
2.118993e-08
1.281855e-08
1.575302e-07
-8.936101e-09
-3.672211e-07
1.463038e-08
-9.507925e-07
-8.648195e-08
3.657604e-10
3.628261e-07
-7.89182e-08
-1.065669e-07
-2.059305e-07
-2.619417e-07
-3.905168e-07
-3.624589e-07
1.510141e-08
-3.845696e-07
-2.003079e-07
-8.519962e-07
1.119637e-08
-4.665652e-08
-1.743499e-07
-5.700269e-07
-4.143788e-07
-4.196563e-07
-4.986975e-07
-8.361641e-09
-1.76517e-08
-3.436259e-09
-5.69164e-07
1.446298e-07
-2.251291e-10
4.413479e-08
-2.094348e-07
-2.645615e-07
-4.76356e-07
-5.979566e-08
-7.276394e-07
-6.41174e-07
-1.230496e-07
-1.068835e-06
-3.691341e-07
-4.324175e-07
-1.379018e-08
-4.945588e-07
-8.103789e-07
-3.201115e-07
-1.314359e-08
-1.554291e-07
-1.020437e-08
-1.589548e-07
-3.762879e-07
-3.325697e-07
-3.725058e-07
-3.529313e-07
2.111833e-09
-4.225512e-07
-2.838465e-07
-1.536789e-07
-3.574467e-07
-1.171154e-07
-3.105643e-07
-4.939532e-08
-1.870834e-07
-5.15887e-08
-7.034336e-08
-8.611573e-08
-8.749357e-08
2.196585e-08
-9.905404e-09
-1.501805e-07
-5.3074e-07
3.038296e-08
-2.156788e-07
-9.201637e-09
-2.677166e-07
-2.854879e-07
-5.181081e-07
1.180648e-07
-6.014126e-08
-4.344467e-08
-7.813744e-08
-5.474331e-08
-7.018618e-07
-5.183031e-08
3.423998e-08
-1.860196e-08
4.183288e-08
-2.859242e-07
-2.476535e-07
-1.540402e-07
-3.509624e-07
-1.560472e-08
4.592696e-08
-4.637828e-07
-5.267694e-07
-1.001954e-07
-5.303405e-08
-6.08395e-08
-4.059879e-08
-7.40848e-08
-4.225323e-07
-8.745257e-07
-1.3809e-07
-4.642538e-08
-3.62789e-08
-9.428883e-09
-5.118805e-07
-6.058973e-07
-4.974008e-07
-5.633212e-07
-6.515998e-07
-6.521277e-07
-3.752874e-07
-6.2966e-07
-5.498021e-07
-7.28441e-07
-4.713069e-07
-1.440029e-07
-7.989347e-08
-1.367975e-07
2.526584e-07
1.302309e-07
-3.733343e-07
-3.283298e-07
-2.298839e-07
-6.946387e-07
3.986912e-08
-3.060786e-07
-2.875507e-07
-2.654322e-07
-7.999462e-07
-4.125775e-07
5.400827e-09
1.43322e-08
-1.47274e-08
-4.380709e-08
4.120991e-09
-1.291122e-08
4.969601e-09
-3.309208e-07
-4.950795e-08
-5.842624e-08
-4.973957e-08
-4.466616e-08
-4.451721e-08
-1.449386e-07
-1.895193e-07
-1.02187e-07
-1.072737e-07
-9.206431e-08
-6.222461e-08
-8.385627e-08
-5.268656e-07
-4.750944e-07
-2.571641e-07
-3.484298e-07
-1.239048e-07
1.264568e-07
1.26661e-07
-9.154203e-07
1.978819e-08
-1.420495e-07
-3.866738e-07
-3.404077e-07
-2.262236e-07
-2.845385e-07
-1.999386e-07
-5.546497e-09
-5.306834e-08
-4.819961e-07
-1.522779e-07
-1.606394e-07
-1.623221e-07
4.095555e-07
-6.301069e-09
-6.694879e-08
-8.650824e-08
1.476106e-08
-3.31508e-08
-2.02439e-07
-1.913788e-07
6.308969e-09
-1.049503e-06
1.004987e-09
-1.421551e-07
-1.513537e-07
-6.972124e-08
-6.623046e-07
1.311803e-07
-4.585317e-07
-8.244571e-08
-5.626239e-07
-3.415317e-07
-2.2905e-07
-3.081704e-08
-1.21152e-07
-3.90752e-08
-2.92982e-07
-2.498269e-07
-2.90133e-07
-3.397493e-07
-2.03509e-09
-5.765143e-07
-4.615144e-07
-5.691745e-07
-6.645077e-08
-1.114162e-07
-2.294916e-07
-1.794283e-07
-3.068486e-07
-2.685291e-08
-6.807064e-08
-2.094237e-07
2.948471e-07
-2.682669e-07
8.891202e-08
7.666522e-09
2.703545e-08
-2.429093e-08
-2.717258e-08
-2.218028e-07
-1.701713e-07
4.566998e-08
-1.509072e-07
-1.511028e-07
-1.065262e-07
-1.504284e-08
3.22798e-08
1.754782e-08
2.093466e-07
-7.548448e-07
-8.795103e-09
2.952756e-08
-3.530909e-09
-1.920544e-08
-5.526762e-07
-3.325729e-07
-1.890104e-07
1.051809e-07
-8.128358e-08
-6.63005e-08
-4.177953e-08
-1.000447e-08
-4.748419e-09
4.487081e-09
-9.693709e-07
-9.498203e-07
-7.480832e-07
-8.049882e-07
-7.269679e-07
-7.708135e-07
-9.172899e-07
1.013494e-07
-1.228548e-09
-4.071392e-07
2.225684e-07
1.007008e-07
-3.369993e-07
-4.509814e-07
-2.099672e-08
-2.646544e-07
-1.99319e-07
-2.553102e-07
-2.844656e-07
-2.922476e-07
-2.73819e-07
8.503485e-08
2.260059e-08
6.440272e-08
-7.617963e-07
-1.894709e-07
-2.840211e-07
-2.221419e-07
-1.84613e-07
-2.725948e-07
-5.724771e-07
-6.13074e-07
5.797762e-09
3.195703e-08
1.1141e-08
-2.196586e-07
-2.11093e-07
-2.326439e-07
-2.284568e-07
-1.419582e-07
-1.320676e-07
-9.978464e-07
-8.939068e-08
-1.41094e-07
9.904997e-09
-3.829424e-07
-3.364018e-07
-3.360502e-07
2.013128e-09
-9.095682e-08
-1.033822e-08
-1.009816e-07
2.140858e-07
2.704398e-08
4.635442e-08
5.396352e-08
-1.231647e-07
-4.812197e-07
-4.933341e-07
-3.796059e-07
-4.270692e-07
-4.82153e-07
-2.008908e-07
-1.592844e-07
-2.426e-09
-1.461031e-09
-1.473802e-07
-1.225478e-07
-5.321143e-07
-7.006639e-07
-3.764419e-07
2.338071e-09
-4.900482e-08
-9.708818e-07
-9.295031e-09
1.607263e-08
6.786389e-09
1.792953e-08
-3.381058e-07
-2.4702e-07
-7.461002e-08
-3.048776e-07
-1.167558e-07
-2.006089e-07
-3.098006e-07
-2.007367e-07
-1.600497e-07
-7.787117e-08
-7.434963e-08
1.71997e-07
-7.059066e-07
-6.743943e-07
-6.660121e-08
1.577707e-07
-7.237555e-07
-1.047018e-08
-1.24814e-11
2.350188e-08
-9.554816e-08
-1.756455e-07
-2.798483e-07
8.483129e-08
-1.672571e-07
-1.280105e-07
-5.548214e-08
-1.062645e-07
-1.070163e-06
-1.100525e-06
-2.627792e-07
-1.924621e-07
-2.462129e-08
9.64721e-08
9.011794e-08
4.291855e-07
-6.917462e-07
-3.264717e-07
-1.46119e-08
-3.247869e-07
-1.958841e-08
-4.739142e-07
1.160033e-08
-5.926249e-08
-6.191276e-08
-1.262486e-08
-9.676902e-07
2.464065e-08
-8.344495e-07
3.353113e-10
-4.950006e-08
-3.631104e-08
-1.671252e-07
1.62761e-07
-7.191141e-07
-7.999169e-07
-5.673121e-07
-2.241727e-07
-2.548375e-07
-5.152955e-08
-6.697956e-08
1.140939e-08
-1.278661e-07
-9.268003e-08
6.379266e-09
5.552512e-08
8.829213e-08
-2.034436e-07
-1.420829e-07
6.179828e-08
-2.720133e-07
8.824714e-09
1.516402e-07
-9.67536e-08
-1.681215e-07
-1.052647e-07
-2.864626e-08
-2.631069e-08
-1.967775e-07
-1.513153e-07
-6.56824e-07
2.225899e-07
2.776921e-07
-6.10339e-07
-8.967212e-07
1.417681e-07
-3.602905e-07
-1.271958e-07
-2.364867e-08
9.653342e-09
-3.076324e-07
-2.840071e-07
-1.384391e-07
-1.257355e-07
1.12364e-07
-2.160887e-08
-6.356915e-07
-1.440659e-08
-5.505938e-08
-6.192485e-07
1.818196e-07
-1.354723e-07
-2.208651e-08
1.588157e-07
-7.911886e-07
-6.887891e-07
-8.069829e-07
-1.858695e-07
-3.876234e-08
-5.117544e-08
-1.422923e-07
-1.496694e-07
9.387998e-08
-8.969328e-08
-6.756617e-07
-3.031736e-07
-1.057824e-06
-1.756093e-07
1.58615e-07
-5.179085e-07
8.739906e-08
-2.829774e-07
-2.58349e-07
3.312814e-08
1.728561e-08
-4.107379e-09
2.171661e-09
-1.100019e-06
3.912766e-07
-5.900239e-07
-1.124277e-06
-1.257198e-07
-2.118862e-08
-2.552891e-07
1.178872e-08
-5.632503e-07
1.894508e-08
1.97563e-08
-1.810411e-07
-4.538748e-07
-4.09243e-09
-1.299307e-07
-5.352234e-08
-1.595064e-07
-1.128019e-07
-1.939528e-07
-4.830257e-07
-3.746021e-07
-4.648349e-08
-4.717648e-08
-1.784982e-08
1.999559e-08
-6.037225e-08
-4.33256e-07
-4.951806e-07
-3.062061e-07
-3.225907e-07
-3.442808e-07
-5.181326e-07
-6.827756e-08
-5.485546e-08
-1.126576e-06
-4.75853e-08
-9.106929e-09
-5.423553e-07
-2.30682e-08
-2.781442e-07
-2.124927e-07
-2.478993e-07
-2.69561e-07
-1.48281e-07
-3.760437e-07
-1.980415e-08
-5.425712e-07
-1.062139e-06
1.958982e-08
-3.765256e-07
-3.740187e-07
8.116793e-10
-8.834914e-07
3.782186e-08
1.786528e-07
-1.030263e-08
-1.401392e-07
2.305972e-08
-2.145663e-07
-1.286477e-07
3.957539e-08
-2.990818e-08
9.272358e-09
-3.801445e-08
-1.236568e-06
-4.905524e-07
-1.489101e-07
1.437806e-08
-1.045314e-07
-1.746377e-07
-1.459843e-08
-3.924325e-08
-3.999227e-07
-1.978041e-07
3.264655e-08
-1.414847e-07
-1.291434e-08
-7.260778e-08
-4.618673e-09
-2.191484e-08
2.088965e-08
-2.752468e-07
-7.088291e-07
3.807956e-08
-1.625679e-07
-3.472563e-07
-1.431991e-07
1.42817e-09
-3.389492e-07
-3.015655e-07
-2.749065e-07
-2.459933e-07
-1.203307e-07
-6.97133e-08
-5.491638e-08
-2.329415e-08
3.769058e-07
-1.433138e-08
3.204303e-07
3.558779e-07
-4.204329e-08
-1.446467e-07
-6.42435e-08
-3.730258e-08
-1.937989e-08
-2.328855e-08
-1.94314e-07
-1.964779e-07
-9.801606e-08
8.318778e-09
-3.247412e-07
-5.056253e-09
-8.388815e-08
-5.626246e-08
-3.390781e-07
-1.120731e-07
7.025862e-08
-7.663264e-07
-6.180813e-07
4.628514e-09
3.591012e-08
-4.184097e-07
-4.971813e-07
-5.760351e-07
-9.359872e-07
-1.457372e-07
1.051816e-09
-2.170956e-08
-4.396046e-08
-9.866919e-08
1.359095e-08
2.81547e-08
6.431189e-09
8.045146e-09
-1.921417e-08
-4.150921e-08
-6.248092e-08
-4.57543e-08
5.830461e-08
-4.521997e-08
-1.308567e-07
-2.871628e-07
-1.211353e-07
-1.069552e-07
-8.414801e-08
-2.317665e-08
-1.883543e-07
-8.776714e-07
-1.371454e-08
-4.747086e-09
-1.634226e-08
-1.715964e-07
2.340373e-07
-5.763984e-07
-5.440284e-07
-6.669629e-09
5.147472e-09
-5.512669e-09
-3.426705e-08
-8.271191e-09
-2.914188e-08
-5.08757e-07
2.354653e-08
-3.535092e-08
-7.002853e-08
-1.586358e-07
-1.497906e-07
-1.141689e-07
-1.099382e-07
-9.912615e-08
-9.304873e-08
-2.928911e-08
-2.252978e-08
-2.626437e-08
3.551913e-08
2.82248e-08
1.079335e-07
-1.201172e-08
-2.944461e-08
-3.471954e-08
-5.360327e-08
-1.625553e-08
-7.333298e-08
-2.109816e-07
-9.400587e-08
-7.35618e-07
-4.398449e-08
3.411449e-08
-5.640134e-07
-2.679348e-07
-1.928298e-07
3.95764e-08
3.360479e-08
-3.324513e-07
-3.695322e-07
7.121177e-07
-1.510307e-07
2.642246e-08
1.504984e-09
-2.437024e-07
-1.16468e-08
-5.407933e-09
-2.126297e-08
-6.808744e-08
-4.399789e-07
-4.18374e-07
-1.85283e-07
-6.484125e-07
-2.989635e-07
-4.848149e-07
2.908745e-07
4.924705e-07
-1.292407e-07
-9.834143e-08
-1.112772e-06
4.021639e-09
-1.776111e-08
-2.084801e-07
-1.604651e-07
-9.753251e-09
2.299455e-08
2.231042e-08
8.347288e-09
6.91612e-09
-4.086594e-09
-3.433463e-07
-4.221331e-07
-6.254002e-07
7.958813e-08
8.142115e-08
8.81038e-08
5.374485e-08
2.889133e-08
3.444499e-08
-2.714725e-07
-3.640644e-07
-4.025596e-07
-4.661154e-07
4.571045e-08
2.291331e-07
-2.074729e-07
-1.403546e-07
-8.559888e-09
-6.633154e-08
-7.332165e-09
-7.221157e-08
-6.847088e-08
-9.593518e-09
-4.55399e-08
-1.215242e-07
-7.62532e-08
-9.256644e-08
-1.052448e-07
5.794171e-08
8.377172e-08
-2.28622e-07
6.980082e-08
-7.582908e-09
-9.932504e-09
-8.886408e-09
6.431057e-09
-1.138536e-06
-9.798523e-07
1.192457e-08
-2.950248e-07
-2.633135e-07
8.727821e-08
7.262724e-08
-1.277334e-07
-2.140168e-07
-3.918802e-08
-2.316678e-07
1.318854e-08
-1.724992e-07
-4.025644e-07
-3.686961e-07
-3.814974e-07
1.359586e-07
4.073156e-08
-1.831419e-07
-1.353923e-07
1.884697e-08
6.700769e-08
-2.869808e-07
-1.419275e-09
-2.02337e-09
-9.715326e-08
2.76424e-08
-8.93544e-08
-7.247968e-07
-1.966813e-08
-2.336452e-08
-1.93096e-08
-7.834751e-09
-2.543852e-07
-2.743577e-07
-2.623318e-07
-1.788021e-07
-1.930833e-07
-5.6966e-07
6.578543e-08
-3.738948e-08
7.001156e-09
-6.965824e-08
-6.238377e-08
-5.511711e-08
-7.309837e-08
-1.111661e-07
-1.365098e-07
-1.267867e-07
-1.139907e-07
-8.661327e-08
-1.096774e-07
-1.116676e-07
-9.294149e-08
-1.072016e-07
-8.06966e-08
-1.218255e-07
-6.468754e-08
-1.042262e-07
-5.283458e-08
-1.0153e-07
-9.023161e-08
-4.810131e-08
-7.929861e-08
-9.987973e-08
-1.226254e-07
-1.051863e-07
-1.477549e-07
-9.653656e-07
-5.472173e-07
-8.931543e-07
-1.712063e-09
-3.574942e-07
2.598481e-08
-1.554069e-07
-3.288669e-09
1.540338e-07
2.906882e-07
3.235335e-07
-2.076602e-07
3.306588e-07
1.347183e-07
3.333286e-08
-1.04677e-08
-6.006597e-08
-7.899873e-08
-1.10433e-07
-5.848112e-08
-6.178741e-08
-1.043485e-07
-1.207133e-07
-9.473753e-08
8.409987e-08
5.640508e-08
9.545588e-08
4.87342e-08
1.326985e-07
1.583342e-07
-4.084648e-07
-3.869684e-07
-8.766851e-07
-8.464421e-07
-7.856725e-07
-3.942268e-09
-6.713351e-07
2.768325e-08
-6.992351e-07
-4.064379e-07
-5.457825e-07
-4.386757e-07
-4.650939e-07
-4.152497e-07
1.511735e-08
-6.934736e-09
-4.393833e-07
-8.04563e-07
-7.384163e-07
-4.140784e-07
-7.874411e-07
-7.6861e-07
-8.922353e-07
-8.660061e-07
-6.7735e-07
5.510069e-09
-1.346502e-07
-8.30231e-07
-3.355444e-07
-1.28126e-07
-7.474753e-07
-3.942969e-07
-8.439149e-07
-9.974181e-07
2.771102e-07
5.897687e-08
-2.268482e-07
-2.020847e-07
-1.984529e-07
-2.44886e-07
-4.069147e-08
-7.955669e-07
-6.439899e-07
-5.685124e-07
-7.61843e-08
-5.824443e-08
-6.742512e-08
-2.537269e-08
8.815608e-08
-3.219452e-08
-5.096198e-07
-4.47979e-07
-6.293217e-07
-1.696247e-07
-1.088352e-07
4.561796e-10
5.647002e-08
4.655687e-08
-2.916508e-08
-5.148107e-08
-1.482303e-07
-2.157897e-07
-2.390146e-07
-2.210089e-07
1.973892e-07
-1.337182e-08
-8.617628e-09
-3.027833e-08
-1.077757e-07
-9.93168e-08
4.721219e-08
-1.793816e-08
-2.820468e-08
4.293706e-09
-1.611296e-07
-6.068014e-08
-3.362348e-08
-8.669181e-08
-2.716586e-08
7.76542e-08
-3.301599e-07
1.318403e-07
-2.437543e-07
9.365744e-09
6.435971e-08
-6.646222e-07
4.347298e-07
-4.570408e-08
-4.565315e-09
-2.864623e-08
1.172681e-07
-1.207979e-07
-4.197182e-08
-2.213992e-08
-2.07556e-08
-1.586724e-08
9.660438e-09
3.38247e-08
3.037324e-08
-2.420469e-07
-6.411025e-08
-7.090564e-08
-5.280483e-08
4.553885e-07
-6.924954e-07
8.474588e-10
-7.392392e-09
-1.181202e-08
-4.309585e-09
-3.103497e-09
-6.123706e-09
1.057716e-08
-7.074478e-07
-6.928512e-07
1.144361e-08
1.287128e-08
-1.322784e-07
-1.375261e-07
-5.516757e-08
-3.84665e-08
1.930883e-08
-7.942445e-07
-8.135197e-07
-7.084505e-07
-1.05177e-07
-6.198162e-07
-2.111436e-07
-1.227965e-07
-1.647506e-07
-1.134533e-07
-8.4392e-08
-7.315671e-08
-1.036229e-07
-8.991159e-08
-1.004724e-07
-1.142233e-07
-6.199889e-08
-7.880321e-08
-7.64756e-08
-9.461634e-08
-4.378963e-08
-6.201206e-08
-1.450184e-07
-8.227273e-08
-1.295601e-07
-1.563648e-07
-1.722824e-07
-6.875063e-08
-7.193208e-08
-6.925193e-08
-5.058037e-08
-1.198677e-07
-1.124937e-07
-1.24995e-07
-1.255684e-07
-8.610224e-08
-7.963316e-08
-9.969562e-08
-1.097728e-07
-2.826979e-07
-1.796179e-07
-8.287676e-08
-9.524502e-08
-8.625957e-08
-7.066127e-08
-4.462332e-08
-1.633721e-08
-1.055333e-07
-8.418281e-08
3.156673e-08
-1.41372e-08
-5.866042e-09
-1.311268e-07
-1.145979e-07
3.07749e-09
-4.861007e-07
-4.8848e-07
-8.413057e-07
-2.72775e-07
-4.069306e-07
-1.333642e-07
-8.253615e-08
-5.093729e-07
-2.577625e-07
-2.613811e-07
-1.586007e-08
-1.973963e-08
-2.751491e-08
5.693167e-09
-7.092855e-08
-8.167751e-08
-6.780311e-08
-9.781226e-08
-8.876041e-08
-2.181074e-08
-1.383077e-07
-1.102751e-07
-4.466618e-07
-6.020141e-08
5.825256e-10
1.04779e-08
-1.480337e-07
-1.55606e-07
1.091979e-08
-3.153691e-07
-4.066881e-07
-2.549442e-07
-3.700274e-08
1.132876e-08
-1.280539e-08
-6.665221e-07
-6.517626e-07
3.87087e-08
5.679159e-08
-1.786392e-08
-1.074182e-08
-1.099021e-06
-2.23034e-07
-2.375768e-07
-4.022029e-07
-2.471447e-08
-1.976547e-07
-4.333521e-07
-3.009766e-07
-4.756596e-08
-1.978934e-07
-5.545401e-07
-1.132943e-07
-3.293842e-09
-3.527964e-07
-2.165934e-07
8.878686e-08
-2.726907e-07
-3.190352e-07
2.497335e-08
-3.780445e-07
-6.742699e-07
-6.901975e-07
-6.637555e-07
-3.547126e-08
-1.258993e-07
-1.304624e-07
-1.662079e-07
-1.607137e-07
-2.387991e-08
-8.254993e-07
-1.955877e-07
-2.860916e-07
-8.795918e-09
3.365462e-07
-1.211506e-07
-3.337463e-07
-4.712173e-07
-5.294214e-08
-1.878919e-07
-4.677577e-07
-6.91708e-08
-4.951338e-08
-3.897458e-08
-2.20346e-08
-1.771452e-08
3.218141e-10
-2.389311e-08
3.431311e-07
-1.391793e-09
-4.301369e-08
-1.144722e-08
-2.459623e-07
-2.111822e-07
-3.450069e-07
-1.054974e-07
-5.804933e-08
-1.589096e-08
1.367347e-07
-5.358471e-08
-5.004974e-08
-8.630103e-08
-8.177773e-08
-6.33154e-08
-9.484543e-08
-5.896261e-08
-6.060489e-08
-4.164482e-08
2.961538e-08
9.503196e-09
4.899452e-09
-2.264947e-08
-1.677386e-07
-2.821241e-07
-1.798791e-07
1.587033e-08
3.421155e-07
1.061939e-08
-3.333806e-08
-6.803373e-08
-5.380678e-08
-4.701644e-08
6.235147e-09
-8.694718e-07
3.260436e-08
7.628266e-08
-3.484233e-07
-4.734275e-08
-5.874901e-08
-5.29241e-09
-5.942993e-07
-2.149352e-07
-9.870122e-07
-9.333022e-07
-8.414844e-07
-8.066963e-07
-2.105858e-08
9.383732e-10
-1.38344e-07
2.859546e-09
-4.507595e-07
-4.095079e-07
-4.429814e-07
-5.108947e-07
-7.650388e-09
-1.225026e-08
-7.894668e-09
-1.998639e-08
3.028102e-09
7.431538e-08
1.663765e-08
3.53941e-08
-1.366332e-07
-4.915255e-08
-2.461907e-07
-3.023825e-07
-4.469331e-08
-4.814466e-08
-1.019261e-07
-1.881129e-08
-2.128157e-08
-3.409895e-08
3.971054e-08
9.781112e-08
-3.178202e-07
-2.873731e-07
-3.271227e-07
-9.16692e-08
-8.086887e-08
-4.572788e-08
-1.791163e-09
-5.146456e-07
-2.655143e-07
-2.226793e-07
-1.739764e-07
-6.789211e-09
-1.397862e-08
1.366936e-10
1.641676e-08
-2.006428e-07
-2.945778e-07
-4.366061e-08
-3.608836e-08
-2.121885e-07
-5.518543e-07
-1.700019e-07
-1.176159e-07
-6.566249e-07
4.637932e-08
-5.041803e-08
-3.707049e-08
-7.624879e-08
-1.074533e-07
-2.587811e-08
-7.95733e-08
-5.814093e-08
-4.315901e-08
-3.14624e-08
-2.702384e-07
8.285684e-09
1.66739e-08
-3.848173e-07
-3.961387e-07
-3.779156e-08
-4.011548e-08
-7.73684e-07
-1.716291e-07
-1.500122e-07
-1.031588e-06
-9.110146e-07
-7.706268e-07
-7.228904e-07
-4.729882e-07
-4.49722e-07
-4.238869e-07
-3.878659e-07
-3.261861e-07
-3.351635e-07
-4.354969e-07
-4.622054e-07
-9.433831e-07
-9.401997e-07
-7.260997e-07
-7.345246e-07
-7.753647e-07
-8.069734e-07
-7.89078e-07
-7.451432e-07
-2.0289e-07
-3.411888e-07
-3.599733e-07
-3.480887e-07
-2.04402e-07
-7.601279e-07
-7.925622e-07
-4.134064e-07
-3.666143e-07
-4.020764e-07
-1.877978e-07
-3.080229e-07
-1.823321e-07
-1.608106e-07
-1.875029e-07
1.652837e-08
-3.426572e-08
-2.602492e-08
2.512573e-07
-4.320111e-07
-4.433517e-07
-5.017171e-08
-3.635216e-09
-1.307014e-08
-7.744223e-08
-6.744046e-08
-2.304741e-07
-1.316105e-07
-6.581564e-07
-6.142618e-07
-1.840948e-08
6.154918e-10
-2.591189e-08
-1.697079e-08
-1.721753e-08
-7.306926e-07
-2.495819e-07
-2.15557e-07
-3.210704e-07
-2.606276e-07
-2.731485e-08
-1.467496e-08
-1.047286e-08
-2.245581e-08
-2.082977e-08
-1.802481e-07
-1.66969e-08
-1.71167e-08
1.946094e-08
2.510069e-08
-5.201604e-08
-3.588163e-08
-1.33314e-08
-1.912949e-08
-7.532053e-08
1.102624e-08
-6.679205e-08
-6.596662e-08
3.756274e-08
-7.770454e-08
-8.73471e-08
-1.206369e-08
-6.398871e-09
-4.808405e-07
-1.371069e-07
1.788256e-07
-1.12517e-07
3.647163e-08
4.351017e-08
-1.778925e-07
-2.319526e-07
-1.545322e-07
1.719254e-08
-4.235863e-07
-5.182609e-07
1.486474e-08