/*--------------------------------*- C++ -*----------------------------------*\
| =========                 |                                                 |
| \\      /  F ield         | OpenFOAM: The Open Source CFD Toolbox           |
|  \\    /   O peration     | Version:  2406                                  |
|   \\  /    A nd           | Website:  www.openfoam.com                      |
|    \\/     M anipulation  |                                                 |
\*---------------------------------------------------------------------------*/
FoamFile
{
    version     2.0;
    format      ascii;
    arch        "LSB;label=32;scalar=64";
    class       surfaceScalarField;
    location    "3.4";
    object      phi;
}
// * * * * * * * * * * * * * * * * * * * * * * * * * * * * * * * * * * * * * //

dimensions      [0 3 -1 0 0 0 0];

oriented        oriented;

internalField   nonuniform List<scalar> 
23794
(
-0.002106449
0.003016498
-0.0009100494
-0.001106314
-0.001000135
-7.770785e-05
-0.001028606
0.000934322
-0.00101203
0.001619952
-0.00068563
0.002131143
-0.000511191
0.002378003
-0.0002468602
0.002251331
0.0001266725
0.001798375
0.000452956
0.001469465
0.0003289094
0.001423924
4.554156e-05
0.0008916979
0.0005322259
-0.0003618892
0.001253587
-0.001538921
0.001177032
-0.002265396
0.0007264752
-0.002521321
0.0002559254
-0.002494008
-2.731324e-05
-0.002452049
-4.195902e-05
-0.002515259
6.320938e-05
-0.001981343
-0.000533916
-0.000803543
-0.0011778
0.0004066469
-0.00121019
0.00184791
-0.001441263
0.003628485
-0.001780575
0.005705554
-0.002077069
0.008455053
-0.002749498
0.008126378
0.0003286748
0.001566388
0.00655999
-0.005796614
0.007363002
-0.004112951
-0.001683663
-0.0006522332
-0.003460718
0.001338648
-0.001990881
0.003035914
-0.001697266
0.0057394
-0.002703486
0.008223241
-0.00248384
0.006620138
0.001603102
0.001851566
0.004768572
-0.0002584289
0.002109995
-0.002118865
0.001860437
-0.006634889
0.004516023
-0.01039204
0.003757151
-0.0124578
0.002065761
-0.01350771
0.001049908
-0.01410099
0.0005932826
-0.01447344
0.0003724471
-0.01462457
0.0001511277
-0.0146624
3.783567e-05
-0.01463723
-2.516816e-05
-0.01455938
-7.785173e-05
-0.01446409
-9.528696e-05
-0.01430969
-0.0001544019
-0.01411476
-0.0001949308
-0.01386189
-0.0002528684
-0.01358495
-0.0002769408
-0.01329017
-0.0002947832
-0.01294222
-0.0003479447
-0.01257493
-0.0003672965
-0.01219889
-0.0003760379
-0.01175974
-0.0004391469
-0.01129811
-0.0004616377
-0.0108119
-0.0004862041
-0.01031879
-0.0004931078
-0.009804272
-0.0005145219
-0.009241859
-0.0005624131
-0.008686452
-0.0005554069
-0.008090371
-0.0005960811
-0.007476785
-0.0006135861
-0.006856772
-0.0006200127
-0.006228446
-0.0006283267
-0.005569819
-0.0006586264
-0.004908969
-0.0006608498
-0.004239451
-0.0006695186
-0.003555402
-0.0006840493
-0.002869489
-0.0006859123
-0.002201895
-0.0006675942
-0.001492104
-0.0007097909
-0.0008090274
-0.0006830768
-0.0001632248
-0.0006458025
0.0004677216
-0.0006309464
0.001221589
-0.0007538677
0.001961493
-0.0007399039
0.002683802
-0.0007223091
0.00339109
-0.0007072878
0.004080205
-0.0006891148
0.004766599
-0.0006863944
0.005430542
-0.0006639433
0.006105328
-0.0006747855
0.006759536
-0.0006542082
0.007377817
-0.0006182807
0.007999939
-0.0006221222
0.008609366
-0.0006094272
0.009195481
-0.0005861151
0.009777863
-0.0005823822
0.01034662
-0.0005687576
0.01086083
-0.0005142045
0.01137104
-0.0005102185
0.01186598
-0.0004949389
0.01232
-0.0004540204
0.01277444
-0.000454439
0.01317637
-0.0004019322
0.01355126
-0.0003748864
0.01388703
-0.0003357692
0.01417981
-0.0002927808
0.014468
-0.0002881893
0.01471874
-0.0002507413
0.01493012
-0.000211374
0.01509862
-0.0001685075
0.01522463
-0.0001260037
0.01531983
-9.520501e-05
0.01535377
-3.393981e-05
0.01535599
-2.215915e-06
0.01526417
9.181792e-05
0.01499668
0.0002674909
0.01457342
0.0004232632
0.01397624
0.000597178
0.01308952
0.0008867159
0.01158697
0.001502553
0.008812589
0.00277438
0.004443474
0.004369115
0.000527524
0.00391595
0.0003710256
0.0001564985
-0.001698748
0.002069773
-0.008369447
0.0066707
-0.01063183
0.002262378
-0.00734356
-0.003288265
-0.004029477
-0.003314083
-0.002212574
-0.001816903
-0.000137753
-0.002074821
0.00338527
-0.003523023
0.005458612
-0.002073342
-0.001229736
0.006688349
-0.007467914
0.006238177
-0.007828951
0.000361037
-0.007197971
-0.0006309795
-0.005475281
-0.00172269
-0.003307172
-0.002168109
-0.0002223025
-0.003084869
0.00191664
-0.002138942
0.001363342
0.0005532977
0.0004929487
0.0008703933
-0.0001700427
0.0006629913
0.0005559431
-0.0007259858
0.002755104
-0.002199161
0.004126514
-0.00137141
0.004668307
-0.000541793
0.004848134
-0.0001798271
0.004268776
0.0005793582
0.002204643
0.002064133
-0.001013266
0.003217909
-0.003502132
0.002488866
-0.003437741
-6.439108e-05
-0.000717022
-0.002720719
0.0008792053
-0.001596227
0.0007160403
0.000163165
-0.0008829959
0.001599036
-0.002811581
0.001928585
0.0002049173
-0.002682559
0.003895809
-0.0021233
-0.001414438
-0.002268255
-9.57031e-05
-0.002347341
0.001176418
-0.002284151
0.002060711
-0.001569922
0.002726088
-0.001176568
0.003044569
-0.0005653412
0.002912367
0.0002588744
0.002268318
0.001097004
0.001466049
0.001131179
0.001208464
0.000303127
0.0003966924
0.001343997
-0.001439913
0.003090193
-0.002793981
0.0025311
-0.003375207
0.001307701
-0.003580541
0.0004612591
-0.00369305
8.519606e-05
-0.003872476
0.0001374665
-0.003903195
9.392828e-05
-0.002883233
-0.001553877
-0.001012201
-0.003048832
0.000802194
-0.003024585
0.002727349
-0.003366418
0.004848671
-0.003901897
0.007110223
-0.004338621
0.009945842
-0.005585117
0.01088475
-0.0006102333
0.004627851
0.01281689
-0.00601264
0.01800349
-0.006512574
-0.001183729
-0.003624309
-0.006348983
-0.002671744
-0.002943446
-0.001723738
-0.002645273
0.0003782371
-0.004805461
0.003406302
-0.005511905
0.00479739
0.0002120142
0.001570956
0.007995006
-0.006268179
0.00994913
-0.0140293
0.00962156
-0.01872969
0.00921641
-0.02074937
0.005776834
-0.02117818
0.002494569
-0.02123984
0.001111569
-0.021204
0.0005574362
-0.02112562
0.0002940731
-0.02094058
-3.391278e-05
-0.02074059
-0.0001621578
-0.02053154
-0.0002342161
-0.02027638
-0.000333011
-0.02000366
-0.0003680109
-0.01967046
-0.0004875995
-0.01929741
-0.0005679798
-0.01886194
-0.0006883398
-0.01840134
-0.0007375393
-0.01792864
-0.0007674839
-0.0173986
-0.0008779884
-0.01684504
-0.0009208556
-0.01628667
-0.0009344013
-0.01565592
-0.001069901
-0.01500383
-0.001113726
-0.01432336
-0.001166673
-0.01363439
-0.001182077
-0.01292645
-0.001222464
-0.01216121
-0.001327655
-0.01140599
-0.001310622
-0.01060834
-0.001393737
-0.009788225
-0.001433698
-0.008963901
-0.001444337
-0.008134002
-0.001458226
-0.007267158
-0.00152547
-0.006396811
-0.001531197
-0.005518741
-0.001547589
-0.004624708
-0.001578082
-0.003730876
-0.001579745
-0.002855974
-0.001542495
-0.00193762
-0.001628145
-0.001048851
-0.001571846
-0.0002012329
-0.001493421
0.0006292663
-0.001461446
0.001599475
-0.001724076
0.00255831
-0.001698739
0.003498001
-0.001662
0.004418322
-0.001627609
0.005319749
-0.001590541
0.006219717
-0.001586363
0.007093888
-0.001538114
0.007980779
-0.001561676
0.008844824
-0.001518254
0.009665222
-0.001438679
0.01049247
-0.001449369
0.01130927
-0.001426225
0.01209694
-0.001373792
0.01288124
-0.001366674
0.01365398
-0.001341499
0.01436273
-0.001222963
0.01507112
-0.001218601
0.01576255
-0.001186374
0.01640836
-0.00109983
0.01705685
-0.001102926
0.01764377
-0.0009888514
0.01820781
-0.0009389288
0.0187281
-0.0008560617
0.01920129
-0.0007659701
0.0196764
-0.000763293
0.02011178
-0.0006861243
0.02050419
-0.000603784
0.02085307
-0.0005173871
0.02115812
-0.0004310547
0.02143428
-0.0003713677
0.02164591
-0.000245568
0.02185806
-0.0002143648
0.02204934
-9.946646e-05
0.02215114
0.000165699
0.02220045
0.0003739455
0.02220491
0.000592717
0.02212307
0.0009685635
0.02180846
0.001817164
0.02071367
0.003869161
0.01746566
0.007617128
0.01185742
0.009524194
0.004625316
0.0073886
-0.002797332
0.009492421
-0.007743003
0.01161637
-0.006850292
0.001369667
-0.002733221
-0.007405336
2.855262e-05
-0.006075857
0.001503383
-0.003291734
0.002443911
-0.003015348
0.005630475
-0.006709588
0.005682428
-0.002125295
-0.004324843
0.01669562
-0.01036269
0.01227603
-0.009562771
-0.000438885
-0.009067416
-0.001126334
-0.007141949
-0.003648158
-0.004649381
-0.004660677
-0.000719242
-0.007015008
0.002905952
-0.005764136
0.002905325
0.0005539247
0.000806607
0.002969112
-0.0006667105
0.002136309
0.0005124236
-0.00190512
0.003221264
-0.004908002
0.00498461
-0.003134756
0.005717901
-0.001275083
0.006039016
-0.0005009426
0.006138634
0.000479741
0.00506637
0.003136396
0.0009577927
0.007326486
-0.003468433
0.006915092
-0.003274615
-0.00025821
-1.735608e-05
-0.005977978
0.001680801
-0.003294385
0.0001026224
0.001741344
-0.003452283
0.005153942
-0.004799256
0.003275558
-0.00069853
-0.003157537
0.004449893
-0.003415656
-0.001586762
-0.00383903
-4.725442e-06
-0.003929377
0.001555014
-0.003843891
0.002650966
-0.002665874
0.003497305
-0.002022908
0.003948463
-0.001016499
0.003752707
0.0004546305
0.002782697
0.002067014
0.001472002
0.002441875
0.000516423
0.001258706
-0.00072383
0.00258425
-0.002340849
0.004707212
-0.003268926
0.003459177
-0.003725337
0.001764112
-0.003985589
0.0007215104
-0.004200322
0.0002999299
-0.004400677
0.0003378213
-0.004224367
-8.238169e-05
-0.002731874
-0.003046371
-0.0003961406
-0.005384565
0.001687255
-0.005107981
0.003683467
-0.005362629
0.005711659
-0.005930089
0.007796927
-0.00642389
0.01086291
-0.0086511
0.01174356
-0.001490883
0.006409289
0.01815116
-0.004810762
0.02922354
-0.009088894
0.003094403
-0.009363704
-0.006074172
-0.01029791
-0.002009239
-0.01020957
-0.002733609
-0.008072931
-0.006942103
-0.004295667
-0.00928917
-0.001112669
-0.002970984
-0.005782572
0.01266491
-0.01700397
0.02117052
-0.02388287
0.01650046
-0.02515636
0.0104899
-0.02495383
0.005574312
-0.02485726
0.002397998
-0.02493224
0.001186549
-0.02497778
0.0006029782
-0.02498028
0.00029657
-0.0248294
-0.0001847902
-0.02462608
-0.0003654766
-0.02439015
-0.0004701503
-0.02409626
-0.0006268971
-0.02378444
-0.0006798382
-0.0233973
-0.0008747379
-0.02296386
-0.001001417
-0.02245443
-0.001197774
-0.02191447
-0.001277496
-0.02136107
-0.001320878
-0.02073628
-0.001502784
-0.02008337
-0.001573763
-0.01942609
-0.001591682
-0.01867933
-0.00181666
-0.01790721
-0.001885852
-0.01710073
-0.001973153
-0.01628374
-0.00199906
-0.015444
-0.002062206
-0.01453347
-0.002238184
-0.01363611
-0.002207987
-0.01268538
-0.002344463
-0.01170796
-0.002411117
-0.01072474
-0.002427561
-0.009734385
-0.00244858
-0.008699185
-0.00256067
-0.007659402
-0.00257098
-0.006609323
-0.002597668
-0.005540353
-0.002647052
-0.004470282
-0.002649817
-0.003421116
-0.002591661
-0.00232185
-0.002727411
-0.001255571
-0.002638125
-0.0002347483
-0.002514244
0.0007687615
-0.002464955
0.00192788
-0.002883195
0.00307561
-0.002846468
0.004200855
-0.002787246
0.005301466
-0.002728221
0.006379078
-0.002668153
0.007454188
-0.002661473
0.008497304
-0.00258123
0.009555265
-0.002619637
0.01058458
-0.002547564
0.01156125
-0.002415354
0.01254596
-0.002434079
0.01351696
-0.002397221
0.01445262
-0.00230946
0.01538423
-0.002298276
0.01630122
-0.002258492
0.01714063
-0.002062377
0.01798018
-0.002058144
0.01879851
-0.002004706
0.01956076
-0.001862077
0.02032805
-0.001870219
0.02101903
-0.001679829
0.02168357
-0.001603478
0.02229449
-0.001466974
0.02284693
-0.001318414
0.02340316
-0.001319526
0.02390984
-0.001192802
0.02436582
-0.001059758
0.02476848
-0.0009200558
0.02511865
-0.0007812247
0.02543388
-0.0006865976
0.02567321
-0.0004848892
0.02590397
-0.0004451316
0.02607574
-0.0002712375
0.02611252
0.0001289206
0.02608122
0.0004052505
0.02601088
0.000663055
0.02591938
0.001060058
0.02582722
0.001909327
0.02593999
0.003756397
0.02569488
0.007862232
0.02304903
0.01217005
0.01386572
0.0165719
0.0006348915
0.02272325
-0.003064272
0.01531553
0.0009358055
-0.00263041
0.004383051
-0.01085258
0.007513322
-0.009206128
0.008197512
-0.003975924
0.0075749
-0.002392736
0.008021811
-0.0071565
0.004445778
0.001450739
-0.006399354
0.02754075
-0.01159004
0.01746672
-0.01097506
-0.001053863
-0.0107101
-0.001391296
-0.008785018
-0.005573243
-0.006111622
-0.007334072
-0.001674762
-0.01145187
0.002955647
-0.01039455
0.003377978
0.0001315933
0.0005718971
0.005775193
-0.0011588
0.003867006
0.0005300493
-0.00359397
0.00376717
-0.008145122
0.005868085
-0.005235671
0.006754592
-0.002161591
0.007055484
-0.0008018347
0.006934698
0.0006005275
0.006595373
0.003475721
0.003939992
0.009981867
-0.0009208083
0.01177589
-0.001986357
0.0008073388
0.0004436626
-0.008407997
0.0005127981
-0.00336352
-0.002644754
0.004898897
-0.005801898
0.008311086
-0.005716228
0.003189887
-0.001964865
-0.003802544
0.005425319
-0.005038431
-0.001938776
-0.005702798
-2.2787e-05
-0.005845366
0.001880649
-0.005747327
0.003242863
-0.004028088
0.004294262
-0.003074307
0.00495371
-0.001675947
0.004869228
0.0005391125
0.003675096
0.003261147
0.001815125
0.004301846
-5.415039e-06
0.003079245
-0.001640301
0.004219137
-0.002867998
0.005934908
-0.003543123
0.004134303
-0.004077096
0.002298085
-0.004307756
0.0009521704
-0.004455921
0.000448095
-0.004667421
0.000549321
-0.004451565
-0.0002982368
-0.002656809
-0.004841128
1.100381e-05
-0.008052377
0.002251635
-0.007348612
0.004065308
-0.007176303
0.005723826
-0.007588607
0.00764755
-0.008347614
0.01122944
-0.01223299
0.01205017
-0.00231161
0.007476648
0.02272468
-0.003934932
0.04063512
-0.01254892
0.01170839
-0.01678788
-0.001835208
-0.01952337
0.0007262506
-0.02023959
-0.002017394
-0.01894936
-0.00823233
-0.01601688
-0.01222165
-0.01521813
-0.003769734
-0.02053026
0.01797704
-0.02796321
0.02860347
-0.03028759
0.01882484
-0.02973112
0.009933427
-0.02970363
0.005546817
-0.02998241
0.002676781
-0.03018752
0.001391662
-0.03025864
0.0006740911
-0.03025543
0.0002933625
-0.0300466
-0.000393619
-0.02977584
-0.0006362344
-0.02946879
-0.0007772059
-0.02909236
-0.001003327
-0.02869798
-0.001074217
-0.02821607
-0.001356641
-0.02768016
-0.001537329
-0.02705404
-0.001823893
-0.02639214
-0.001939395
-0.02571575
-0.001997273
-0.02495566
-0.002262876
-0.02416212
-0.002367304
-0.02336412
-0.002389683
-0.02246227
-0.002718509
-0.02152824
-0.002819875
-0.02055421
-0.002947191
-0.01956904
-0.002984231
-0.01855794
-0.003073305
-0.01746074
-0.003335379
-0.01638225
-0.00328648
-0.01523862
-0.00348809
-0.01406476
-0.003584977
-0.01288308
-0.003609241
-0.01169375
-0.003637914
-0.01045095
-0.003803463
-0.009202852
-0.003819082
-0.007942168
-0.003858351
-0.006660598
-0.003928622
-0.005375126
-0.003935289
-0.00411462
-0.003852167
-0.002792598
-0.004049433
-0.00150764
-0.003923083
-0.0002718075
-0.003750076
0.0009454423
-0.003682205
0.002334955
-0.004272708
0.003710592
-0.004222105
0.005061994
-0.004138647
0.006381376
-0.004047603
0.007671471
-0.003958248
0.008957641
-0.003947644
0.01020511
-0.003828696
0.01147297
-0.003887497
0.01270431
-0.003778904
0.01387586
-0.003586906
0.01505871
-0.003616932
0.01622348
-0.003561992
0.01734943
-0.003435404
0.01847263
-0.003421473
0.01957558
-0.003361441
0.0205892
-0.003076002
0.02160396
-0.003072905
0.02259226
-0.002993003
0.02351572
-0.00278554
0.02444594
-0.002800441
0.02528569
-0.002519573
0.02609388
-0.002411669
0.02683894
-0.002212041
0.02751749
-0.001996959
0.02820054
-0.00200258
0.02882427
-0.001816525
0.02939028
-0.001625776
0.02989153
-0.001421297
0.03033373
-0.001223428
0.03073668
-0.001089548
0.03104866
-0.0007968704
0.03135367
-0.0007501388
0.03159063
-0.0005082006
0.03165532
6.422941e-05
0.03161933
0.0004412392
0.03151098
0.0007714055
0.03131019
0.00126085
0.03096164
0.002257873
0.03066116
0.004056882
0.03078972
0.007733675
0.03076455
0.01219521
0.02520182
0.02213463
0.01284129
0.03508378
0.006096234
0.02206059
0.009068265
-0.005602441
0.01393967
-0.01572399
0.01655063
-0.01181708
0.01648888
-0.003914179
0.0142022
-0.000106055
0.01108173
-0.004036026
0.003315468
0.009217
-0.00772968
0.0385859
-0.01216236
0.02189939
-0.01200348
-0.001212743
-0.01217785
-0.001216919
-0.01028438
-0.007466719
-0.007546344
-0.01007211
-0.002946562
-0.01605165
0.002245017
-0.01558612
0.002859532
-0.0004829217
-0.0001723082
0.008807033
-0.001652312
0.00534701
0.0005033813
-0.005749663
0.004322026
-0.01196377
0.006864216
-0.007777861
0.007913897
-0.003211272
0.008291444
-0.001179381
0.008009119
0.0008828522
0.007629302
0.003855538
0.00637091
0.01124026
0.002658808
0.015488
0.0002816697
0.003184477
-8.425768e-06
-0.008117902
-0.002150802
-0.001221144
-0.006157649
0.008905744
-0.007774676
0.009928113
-0.006733089
0.0021483
-0.003272635
-0.004623022
0.006668046
-0.007083455
-0.002412791
-0.007913028
-0.0001239215
-0.008134236
0.002204347
-0.008075595
0.003903427
-0.005727169
0.005183701
-0.00435458
0.006042423
-0.002534669
0.006170613
0.0004109231
0.004938943
0.004492817
0.002612201
0.006628587
4.713998e-06
0.005686733
-0.002029693
0.006253544
-0.00320746
0.007112676
-0.004049218
0.00497606
-0.004826124
0.00307499
-0.00493343
0.001059477
-0.004747502
0.0002621673
-0.004861832
0.0006636505
-0.004794555
-0.0003655132
-0.002811232
-0.006824451
0.0001164267
-0.01098004
0.002253173
-0.009485358
0.003428249
-0.008351379
0.004630106
-0.008790464
0.006631702
-0.01034921
0.01085611
-0.0164574
0.01190736
-0.003362861
0.007633871
0.02699817
-0.004490941
0.05275994
-0.01715065
0.0243681
-0.02507901
0.006093152
-0.02916429
0.004811528
-0.03101563
-0.0001660596
-0.03175744
-0.007490512
-0.03204186
-0.01193723
-0.03345328
-0.00235832
-0.03565346
0.02017723
-0.03640579
0.0293558
-0.03541638
0.01783543
-0.03504703
0.009564082
-0.03537533
0.005875113
-0.0356936
0.002995049
-0.03593256
0.001630629
-0.03603393
0.0007754627
-0.03606452
0.0003239446
-0.03583725
-0.000620888
-0.03553987
-0.0009336163
-0.03519593
-0.001121146
-0.03475583
-0.001443422
-0.03431004
-0.001520011
-0.03374278
-0.0019239
-0.03311714
-0.002162966
-0.03237569
-0.002565347
-0.03159205
-0.002723033
-0.03079429
-0.002795029
-0.02988834
-0.003168828
-0.02894294
-0.003312705
-0.02799566
-0.003336962
-0.02692024
-0.003793927
-0.02580301
-0.003937102
-0.02463877
-0.004111439
-0.02346347
-0.004159527
-0.02225664
-0.004280139
-0.02094029
-0.004651722
-0.01965351
-0.004573261
-0.01828258
-0.00485902
-0.01687876
-0.004988794
-0.01546337
-0.005024635
-0.01404107
-0.005060213
-0.01255115
-0.005293383
-0.01105505
-0.005315182
-0.00954161
-0.005371793
-0.008006672
-0.00546356
-0.006464351
-0.005477609
-0.004953047
-0.005363471
-0.003361491
-0.005640989
-0.001810262
-0.005474312
-0.0003111825
-0.005249156
0.001165067
-0.005158455
0.002831135
-0.005938776
0.004478524
-0.005869494
0.006099148
-0.00575927
0.007673796
-0.005622252
0.009210949
-0.005495401
0.01074566
-0.005482357
0.01223483
-0.00531786
0.0137547
-0.005407373
0.0152249
-0.005249103
0.01663031
-0.004992312
0.01805209
-0.005038714
0.01944364
-0.004953539
0.0207939
-0.004785671
0.02214592
-0.004773488
0.02346393
-0.004679458
0.02467727
-0.004289335
0.02589432
-0.004289962
0.02707565
-0.004174326
0.02817606
-0.003885958
0.02929036
-0.003914741
0.03029017
-0.003519383
0.03125187
-0.003373362
0.03213648
-0.003096654
0.03293786
-0.002798338
0.03374788
-0.002812596
0.03447906
-0.002547713
0.03514619
-0.002292898
0.03572842
-0.002003528
0.03623964
-0.001734647
0.03670719
-0.001557105
0.03705096
-0.001140636
0.03739511
-0.001094292
0.03764695
-0.0007600396
0.0376967
1.448065e-05
0.03762094
0.0005169994
0.03746612
0.0009262266
0.03722209
0.001504879
0.03682285
0.002657117
0.03637376
0.004505967
0.03598725
0.008120186
0.03637511
0.01180735
0.03558038
0.02292937
0.0299858
0.04067836
0.02473453
0.02731186
0.02448805
-0.005355961
0.02653947
-0.01777541
0.02721453
-0.01249215
0.02593664
-0.002636285
0.02211745
0.003713133
0.01520633
0.002875097
0.003257075
0.02116625
-0.008279396
0.05012237
-0.01235247
0.02597246
-0.01240058
-0.00116463
-0.01320665
-0.0004108454
-0.01117769
-0.009495682
-0.008514433
-0.01273536
-0.004332071
-0.02023401
0.0006386551
-0.02055685
0.001273693
-0.001117959
-0.001444651
0.01152538
-0.002276428
0.006178788
0.0002419036
-0.008267995
0.004742464
-0.01646433
0.007910373
-0.01094577
0.00920783
-0.004508729
0.009710265
-0.001681817
0.009411355
0.001181763
0.008696422
0.004570471
0.007917512
0.01201917
0.005412679
0.01799283
0.00190411
0.006693046
-0.001365689
-0.004848103
-0.006069491
0.003482658
-0.009640053
0.01247631
-0.009545809
0.00983387
-0.00803195
0.0006344408
-0.004636539
-0.005692869
0.008213005
-0.00960359
-0.003020452
-0.01058545
-0.000321509
-0.01083318
0.002507911
-0.01090501
0.004655241
-0.007874499
0.006230605
-0.005929944
0.007280567
-0.003584631
0.007648681
4.280876e-05
0.006562639
0.00557886
0.003952697
0.009238529
0.0006112728
0.009028157
-0.002039238
0.008904055
-0.00363277
0.008706207
-0.004918651
0.006261941
-0.005973776
0.004130115
-0.005954988
0.001040689
-0.005320627
-0.0003721939
-0.005064076
0.0004070992
-0.005089982
-0.0003396073
-0.003042698
-0.008871734
-0.0001345106
-0.01388822
0.00122082
-0.01084069
0.001476044
-0.008606604
0.002436467
-0.009750887
0.004612475
-0.01252522
0.008960746
-0.02080567
0.01006002
-0.004462132
0.005709779
0.03134841
-0.00733449
0.0658042
-0.02254033
0.03957394
-0.03234229
0.01589511
-0.03672741
0.009196654
-0.0393873
0.002493828
-0.04171463
-0.005163181
-0.04435148
-0.009300379
-0.04692601
0.0002162174
-0.04645168
0.0197029
-0.04344576
0.02634987
-0.0420484
0.01643807
-0.04237136
0.009887046
-0.0427509
0.00625465
-0.04309564
0.003339793
-0.04336373
0.001898719
-0.04342475
0.0008364846
-0.04342747
0.000326665
-0.04312045
-0.0009279158
-0.04275184
-0.001302225
-0.04232072
-0.001552265
-0.0417651
-0.001999042
-0.04122963
-0.002055484
-0.04053326
-0.00262027
-0.03977732
-0.002918898
-0.03887741
-0.003465265
-0.037927
-0.003673439
-0.03696783
-0.003754201
-0.03587174
-0.004264914
-0.03473227
-0.004452173
-0.03359762
-0.004471615
-0.03230431
-0.005087236
-0.03095635
-0.00528507
-0.0295585
-0.005509285
-0.02814762
-0.00557041
-0.02670257
-0.005725183
-0.02511582
-0.006238475
-0.02358005
-0.006109032
-0.02193175
-0.00650732
-0.02024912
-0.006671421
-0.01855289
-0.006720867
-0.01685263
-0.006760471
-0.01506931
-0.007076709
-0.01328192
-0.007102571
-0.0114653
-0.007188408
-0.00962813
-0.007300731
-0.007772549
-0.00733319
-0.005966569
-0.007169452
-0.004053735
-0.007553822
-0.002175041
-0.007353005
-0.0003531365
-0.007071061
0.001437884
-0.006949475
0.003436491
-0.007937383
0.00541058
-0.007843583
0.007339828
-0.007688519
0.009208541
-0.007490965
0.01103868
-0.00732554
0.0128731
-0.007316781
0.01465622
-0.007100978
0.01648775
-0.007238905
0.0182458
-0.007007148
0.01993806
-0.006684577
0.02165621
-0.006756861
0.02332098
-0.006618306
0.02494173
-0.006406424
0.02658069
-0.006412441
0.02815972
-0.006258489
0.02961393
-0.00574355
0.03108017
-0.005756197
0.03250039
-0.005594545
0.03381871
-0.005204284
0.03516248
-0.005258514
0.03636596
-0.004722857
0.03752435
-0.004531754
0.03858799
-0.004160297
0.03955676
-0.003767109
0.0405417
-0.003797531
0.04142162
-0.003427636
0.04223909
-0.00311037
0.04294495
-0.002709381
0.04357428
-0.002363978
0.04415217
-0.002134999
0.04458578
-0.00157424
0.0450164
-0.001524918
0.04533939
-0.001083024
0.04543916
-8.529029e-05
0.04539425
0.0005619022
0.04523884
0.001081638
0.04497973
0.001763996
0.04451815
0.003118695
0.04398759
0.005036528
0.04335665
0.008751119
0.04286399
0.01230001
0.04421779
0.02157557
0.04595611
0.03894003
0.04470963
0.02855834
0.04169566
-0.002341988
0.0394851
-0.01556485
0.03749444
-0.01050149
0.03468697
0.00017119
0.02978068
0.008619418
0.02012126
0.01253452
0.004983711
0.0363038
-0.007421372
0.06252745
-0.01161818
0.03016927
-0.0117798
-0.001003017
-0.01344873
0.001258083
-0.01085244
-0.01209196
-0.008271768
-0.01531604
-0.00509342
-0.02341236
-0.001503789
-0.02414648
-0.001235096
-0.001386652
-0.002989057
0.01327934
-0.003267012
0.006456743
-0.0006776595
-0.01085735
0.004831543
-0.02197353
0.008825992
-0.01494022
0.01051208
-0.006194821
0.01133668
-0.002506409
0.01113789
0.001380552
0.01016203
0.00554633
0.008994693
0.0131865
0.006724407
0.02026311
0.002303917
0.01111354
-0.003869244
0.001325058
-0.01034568
0.009959093
-0.01275808
0.01488871
-0.01152718
0.008602964
-0.009876552
-0.001016186
-0.006300087
-0.007160433
0.01029346
-0.01273661
-0.003845121
-0.01390076
-0.000597882
-0.01408042
0.002758403
-0.0142613
0.005473873
-0.01058997
0.007431964
-0.007888035
0.008768178
-0.004920845
0.009399493
-0.0005885065
0.00852754
0.006450812
0.005885945
0.01188012
0.001881862
0.01303224
-0.001736361
0.01252228
-0.004181884
0.01115173
-0.005979894
0.008059951
-0.007261097
0.005411318
-0.007106726
0.0008863181
-0.006082337
-0.001396583
-0.005315239
-0.0003599993
-0.005363934
-0.0002909118
-0.003769912
-0.01046576
-0.001845689
-0.01581245
-0.001771583
-0.01091479
-0.002258486
-0.0081197
-0.001085142
-0.01092423
0.00111057
-0.01472093
0.004211059
-0.02390616
0.004351924
-0.004602997
0.00062702
0.03507332
-0.0133263
0.07975752
-0.02911173
0.05535937
-0.03892521
0.0257086
-0.04305729
0.01332873
-0.04623016
0.005666698
-0.04924149
-0.002151851
-0.05278238
-0.005759493
-0.05579764
0.003231476
-0.05469576
0.01860101
-0.05143204
0.02308615
-0.05058714
0.01559317
-0.05095598
0.01025589
-0.0512258
0.006524469
-0.05157636
0.003690352
-0.05191
0.002232358
-0.05194914
0.0008756281
-0.05203963
0.0004171477
-0.05164056
-0.001326983
-0.05121619
-0.00172659
-0.05071482
-0.002053636
-0.05002961
-0.002684256
-0.04942392
-0.002661175
-0.04857498
-0.003469207
-0.04768681
-0.003807066
-0.04660833
-0.004543744
-0.04546231
-0.004819461
-0.04432477
-0.004891746
-0.04301521
-0.005574473
-0.04164825
-0.005819133
-0.04028619
-0.005833669
-0.03874535
-0.006628075
-0.03713096
-0.006899469
-0.03545721
-0.007183029
-0.03374717
-0.007280448
-0.03204129
-0.007431067
-0.03011897
-0.008160794
-0.02829184
-0.007936164
-0.02630253
-0.00849663
-0.02428882
-0.00868513
-0.02226162
-0.008748071
-0.02019561
-0.00882648
-0.01807805
-0.009194264
-0.01594982
-0.009230806
-0.01377463
-0.009363592
-0.01159633
-0.009479031
-0.009330935
-0.009598589
-0.007196851
-0.009303536
-0.004898613
-0.009852061
-0.002616585
-0.009635033
-0.0003985418
-0.009289104
0.001777461
-0.009125478
0.004173454
-0.01033338
0.00653562
-0.01020575
0.008796791
-0.00994969
0.01102049
-0.00971466
0.01322113
-0.009526182
0.01541734
-0.009512992
0.01755676
-0.009240397
0.01978262
-0.00946477
0.02189072
-0.009115241
0.02391846
-0.008712318
0.02598303
-0.00882143
0.02799396
-0.008629238
0.0299424
-0.00835487
0.03190002
-0.008370057
0.0337967
-0.00815517
0.03553447
-0.007481317
0.03729037
-0.007512104
0.03897249
-0.007276666
0.04056643
-0.006798222
0.04217923
-0.006871314
0.04361086
-0.00615448
0.04501099
-0.005931887
0.04626726
-0.005416567
0.04742663
-0.004926483
0.04861178
-0.004982676
0.04964449
-0.00446035
0.05063332
-0.004099203
0.05145421
-0.003530265
0.05220655
-0.003116323
0.05290227
-0.002830713
0.05339209
-0.002064064
0.05390753
-0.002040361
0.05430202
-0.001477508
0.05438423
-0.0001675025
0.05429257
0.0006535601
0.05409175
0.00128246
0.05378513
0.002070612
0.05327834
0.003625483
0.05273039
0.005584479
0.05224218
0.009239333
0.05138178
0.01316041
0.05259959
0.02035776
0.05749475
0.03404487
0.05882819
0.02722491
0.0544296
0.0020566
0.04951013
-0.01064538
0.04578822
-0.00677958
0.04185968
0.004099733
0.03661124
0.01386786
0.02582446
0.0233213
0.009076508
0.05305176
-0.004297484
0.07590145
-0.009128126
0.03499992
-0.00985457
-0.0002765725
-0.01252098
0.00392449
-0.008847892
-0.01576505
-0.006155877
-0.01800805
-0.004320862
-0.02524737
-0.002889864
-0.02557748
-0.003356182
-0.0009203334
-0.004398287
0.01432144
-0.004882918
0.006941374
-0.002210878
-0.01352939
0.004271716
-0.02845612
0.009199232
-0.01986773
0.01148871
-0.008484298
0.01303684
-0.004054537
0.01318877
0.001228616
0.0121465
0.006588608
0.01008723
0.01524577
0.006943437
0.02340691
0.001218099
0.01683887
-0.007501727
0.01004488
-0.0145701
0.01702747
-0.01578563
0.01610423
-0.01420377
0.007021109
-0.01248057
-0.002739389
-0.008487196
-0.009227832
0.01321973
-0.01672851
-0.005053247
-0.01807534
-0.001001322
-0.01813234
0.002930473
-0.01819309
0.006304445
-0.01396394
0.008747588
-0.01033118
0.01054027
-0.006713527
0.01145878
-0.001507017
0.0107617
0.00714789
0.008425449
0.01421638
0.00357109
0.0178866
-0.001644549
0.01773792
-0.004946185
0.01445337
-0.006924384
0.01003815
-0.008414322
0.006901256
-0.008190178
0.0006621739
-0.006853005
-0.002733755
-0.005686545
-0.001526459
-0.0062352
0.0002577424
-0.00635546
-0.0103455
-0.006587924
-0.01557998
-0.007719077
-0.00978364
-0.007960185
-0.007878593
-0.005776925
-0.01310749
-0.004951872
-0.01554598
-0.003642915
-0.02521512
-0.005385908
-0.002860004
-0.009845293
0.0395327
-0.02346738
0.0933796
-0.03820894
0.07010093
-0.04645377
0.03395342
-0.0507124
0.01758737
-0.05459153
0.009545827
-0.05795008
0.001206701
-0.0616932
-0.002016374
-0.06481485
0.00635312
-0.06420343
0.0179896
-0.06175143
0.02063416
-0.0611473
0.01498904
-0.06140149
0.01051008
-0.06170315
0.006826123
-0.06199879
0.003985992
-0.0624374
0.002670972
-0.06236298
0.0008012112
-0.06239976
0.0004539277
-0.06197557
-0.001751179
-0.06143555
-0.002266604
-0.0608948
-0.002594391
-0.05998538
-0.003593673
-0.05930271
-0.003343851
-0.05826973
-0.00450218
-0.05723273
-0.004844071
-0.05591817
-0.005858298
-0.05451333
-0.006224303
-0.05317307
-0.006232004
-0.05163355
-0.007113998
-0.04993044
-0.007522236
-0.04830376
-0.007460351
-0.04648325
-0.008448592
-0.04456642
-0.008816291
-0.0425219
-0.009227551
-0.04044937
-0.009352984
-0.03849931
-0.009381126
-0.03610612
-0.01055398
-0.03396616
-0.01007612
-0.03150441
-0.01095838
-0.02914975
-0.01103979
-0.02672038
-0.01117744
-0.02420211
-0.01134475
-0.02170754
-0.01168883
-0.01913248
-0.01180587
-0.01651517
-0.0119809
-0.01396407
-0.01203013
-0.01119971
-0.01236295
-0.00872028
-0.01178297
-0.0059166
-0.01265574
-0.003162278
-0.01238936
-0.0004577326
-0.01199365
0.002209062
-0.01179227
0.005106139
-0.01323045
0.007822035
-0.01292165
0.0104699
-0.01259755
0.01316803
-0.01241279
0.01585464
-0.01221279
0.0185017
-0.01216006
0.0210397
-0.01177839