/*--------------------------------*- C++ -*----------------------------------*\
| =========                 |                                                 |
| \\      /  F ield         | OpenFOAM: The Open Source CFD Toolbox           |
|  \\    /   O peration     | Version:  2406                                  |
|   \\  /    A nd           | Website:  www.openfoam.com                      |
|    \\/     M anipulation  |                                                 |
\*---------------------------------------------------------------------------*/
FoamFile
{
    version     2.0;
    format      ascii;
    arch        "LSB;label=32;scalar=64";
    class       volVectorField;
    location    "3.4";
    object      U;
}
// * * * * * * * * * * * * * * * * * * * * * * * * * * * * * * * * * * * * * //

dimensions      [0 1 -1 0 0 0 0];

internalField   nonuniform List<vector> 
15536
(
(0.07105209 -2.623421 -1.096048e-22)
(0.09527091 -1.641859 -3.266101e-19)
(0.04194296 -0.5968274 -7.816098e-19)
(-0.09354562 0.4669153 -9.322905e-19)
(-0.2558488 1.334079 -1.755942e-20)
(-0.4290096 1.905201 9.693079e-21)
(-0.5935929 2.274874 2.360512e-20)
(-0.7038504 2.361767 -2.348244e-20)
(-0.6778334 2.040138 6.524216e-18)
(-0.5870513 1.549586 6.626315e-18)
(-0.5835471 1.346431 0)
(-0.6013488 1.27795 0)
(-0.1377227 0.3609922 -5.188315e-20)
(0.6553732 -0.9798714 1.323673e-17)
(1.177913 -1.712261 6.342046e-18)
(1.483838 -2.037376 -1.22242e-17)
(1.559085 -2.002948 5.741761e-18)
(1.59999 -1.896118 4.081121e-20)
(1.757232 -1.899323 -7.988996e-20)
(1.701917 -1.718122 3.920609e-20)
(1.084715 -1.034211 0)
(0.1924429 -0.1844477 6.316283e-18)
(-0.8907542 0.6670752 0)
(-2.318891 1.624667 8.923413e-18)
(-3.986819 2.609379 -7.506408e-20)
(-6.121023 3.703278 -1.099192e-19)
(-7.716001 4.488745 1.099811e-19)
(-6.037435 3.590134 -1.408223e-17)
(2.513731 -0.7521177 -7.689663e-18)
(7.097663 -3.030298 0)
(2.309504 -1.038744 -2.92063e-20)
(-0.7965252 0.1105333 -4.386729e-18)
(-2.310951 0.5287312 4.974594e-18)
(-4.390564 0.9159542 0)
(-6.664058 1.268664 -7.31808e-18)
(-8.498932 1.495257 -3.507936e-20)
(-5.273445 0.962374 4.504436e-18)
(0.2288751 0.09835625 -1.902828e-18)
(0.5919961 -0.1578333 1.822802e-21)
(4.262469 0.2483046 -4.341134e-19)
(9.362109 0.8941037 1.658156e-18)
(12.07629 1.565182 -2.616805e-20)
(13.36495 2.222076 2.569276e-20)
(13.98881 2.902062 0)
(14.29143 3.569129 -6.474512e-18)
(14.38861 4.204819 -6.408581e-18)
(14.30587 4.800374 0)
(14.10974 5.360875 -1.216033e-17)
(13.83171 5.889553 1.182012e-17)
(13.50994 6.394001 1.138091e-17)
(13.13284 6.858273 4.131187e-20)
(12.69601 7.278619 -1.028462e-17)
(12.20754 7.650043 0)
(11.67648 7.974068 0)
(11.11233 8.2471 8.260284e-18)
(10.51325 8.461471 7.557621e-18)
(9.897559 8.628034 5.005442e-20)
(9.271504 8.74485 5.934121e-18)
(8.622355 8.793596 1.038182e-17)
(7.963049 8.782666 4.387747e-18)
(7.301839 8.715287 3.529623e-18)
(6.651764 8.600265 -2.467886e-20)
(6.009745 8.427976 0)
(5.373643 8.192293 1.052227e-18)
(4.756474 7.909605 0)
(4.155895 7.565643 6.211268e-19)
(3.579682 7.16691 -2.759455e-20)
(3.037886 6.723834 -2.884795e-21)
(2.530251 6.234456 1.001985e-20)
(2.061204 5.703085 -3.638421e-18)
(1.636207 5.13774 -1.790878e-20)
(1.256085 4.535948 2.477878e-18)
(0.9224504 3.899049 2.746431e-18)
(0.6405384 3.241744 0)
(0.4100246 2.568698 0)
(0.2344806 1.874861 3.37514e-18)
(0.1108126 1.171783 -1.898005e-22)
(0.04274703 0.4948872 9.209421e-19)
(0.02323069 -0.1479969 1.692642e-21)
(0.05764068 -0.8579888 -7.028607e-21)
(0.1422866 -1.617783 -1.740319e-18)
(0.2851112 -2.363742 0)
(0.4842036 -3.081554 3.130542e-18)
(0.7362778 -3.770675 0)
(1.03976 -4.430767 -2.634635e-18)
(1.392449 -5.060083 2.321499e-18)
(1.793439 -5.65709 1.710057e-20)
(2.239374 -6.220639 3.411392e-18)
(2.727014 -6.74139 9.095811e-21)
(3.252013 -7.217153 -1.982186e-18)
(3.811801 -7.650038 -1.196009e-18)
(4.403775 -8.034194 5.907811e-21)
(5.025934 -8.371661 4.652673e-19)
(5.668128 -8.658802 -1.315376e-18)
(6.326445 -8.890941 2.020505e-20)
(6.990246 -9.055018 6.709807e-21)
(7.664527 -9.165679 -3.84565e-18)
(8.34498 -9.223091 0)
(9.022793 -9.219276 1.090552e-17)
(9.70038 -9.16503 6.193729e-18)
(10.35804 -9.046246 1.111775e-19)
(10.99226 -8.865738 -7.852462e-18)
(11.59903 -8.626635 0)
(12.1771 -8.333015 0)
(12.72541 -7.993282 0)
(13.23527 -7.605404 0)
(13.69663 -7.170442 1.100455e-17)
(14.10619 -6.692302 1.15902e-17)
(14.4644 -6.175922 3.104006e-20)
(14.76507 -5.62854 -1.238963e-17)
(14.99374 -5.04925 -6.307869e-18)
(15.12596 -4.43822 -6.494012e-18)
(15.1183 -3.793854 5.073516e-20)
(14.94343 -3.122638 6.576504e-18)
(14.57792 -2.436386 3.368539e-18)
(13.95676 -1.753258 -2.596187e-20)
(12.90966 -1.115249 -6.173522e-21)
(10.98449 -0.554401 4.032551e-19)
(7.351312 -0.1186209 -7.769077e-19)
(1.47361 0.05959007 -1.868657e-20)
(-0.02868761 0.2578004 1.319982e-20)
(1.297259 0.130205 3.019397e-18)
(-6.285513 -1.705839 2.670094e-20)
(-10.74782 -2.841363 0)
(-8.361976 -2.305338 -5.98567e-18)
(-5.516066 -1.657377 -3.691793e-18)
(-3.171799 -1.056982 -7.68606e-22)
(-1.737678 -0.5599589 4.013884e-18)
(1.355402 0.833445 -1.494527e-18)
(6.221178 3.310268 0)
(2.498246 1.020343 0)
(-5.051392 -3.620629 -7.024058e-18)
(-6.812455 -4.76746 0)
(-6.225939 -4.646866 6.255024e-20)
(-5.153678 -4.086334 -7.141533e-18)
(-3.450056 -2.891306 -4.571049e-18)
(-1.408251 -1.168996 9.566823e-21)
(0.9286631 0.9772047 -1.12532e-18)
(1.491234 1.524214 -5.151174e-21)
(0.6768465 0.7621235 -1.637307e-19)
(-0.04371359 -0.1088845 -1.797648e-19)
(-0.1356924 -0.1691257 6.213718e-20)
(0.7966188 1.38175 5.36353e-19)
(1.802146 3.066272 0)
(2.254936 4.059125 -2.046605e-20)
(2.279622 4.463031 -4.335383e-18)
(2.135253 4.488774 0)
(1.574251 3.444535 4.726999e-18)
(0.4181646 0.7399267 -3.215407e-20)
(-0.7391518 -2.789853 1.459711e-20)
(-1.05944 -4.210915 1.331063e-18)
(-0.5646946 -2.06562 -2.331472e-21)
(-0.001199147 0.3486529 0)
(0.175973 1.22415 5.31294e-19)
(0.08468375 0.491756 3.909272e-21)
(0.002143956 -2.450671 9.99639e-22)
(0.02717454 -3.455558 -1.159126e-21)
(-0.09507647 -2.774065 -1.180566e-19)
(-0.041049 -1.766803 2.67884e-19)
(-0.08057129 -0.6441805 0)
(-0.2056012 0.4766509 7.670658e-19)
(-0.3482652 1.386002 0)
(-0.5226182 2.008271 4.268018e-18)
(-0.6840619 2.416295 1.944839e-20)
(-0.772953 2.501414 -1.939964e-20)
(-0.738773 2.22223 -5.3597e-18)
(-0.5739277 1.535765 -5.463925e-18)
(-0.3982724 0.8728676 0)
(-0.4226159 0.9800912 4.285411e-20)
(0.3411217 -0.2717815 -5.882209e-23)
(1.2188 -1.739205 -5.283124e-18)
(1.571159 -2.239358 -1.04177e-17)
(1.755034 -2.405371 4.971986e-18)
(1.850407 -2.386026 -4.605632e-18)
(2.05121 -2.435671 -3.534223e-20)
(2.336272 -2.551825 0)
(2.091948 -2.228766 0)
(1.148653 -1.303169 0)
(-0.03248092 -0.2062403 5.106853e-18)
(-1.310811 0.7751593 5.232579e-20)
(-2.796199 1.736619 -5.012784e-20)
(-4.393168 2.614309 7.531777e-20)
(-6.303913 3.458014 -7.094799e-20)
(-7.547123 4.150602 0)
(-8.022846 4.916628 0)
(0.7515193 0.7338143 1.114466e-17)
(7.896842 -3.465196 3.319687e-20)
(3.846433 -1.917516 -3.14636e-20)
(2.274943 -1.009999 3.498172e-18)
(1.607241 -0.6761058 4.099717e-18)
(0.5814151 -0.4958995 -4.463568e-20)
(-1.135516 -0.1637071 -6.446576e-18)
(-3.44036 0.6713643 4.206301e-18)
(-5.091692 1.088755 -4.068818e-21)
(1.471765 0.2461953 1.377095e-18)
(9.8195 0.1877505 0)
(14.53265 0.7300425 2.892761e-19)
(17.49281 1.168865 2.329843e-18)
(18.03658 1.586197 2.464051e-18)
(18.07077 2.133768 2.528065e-18)
(17.94683 2.77326 -7.913367e-20)
(17.74549 3.428577 5.171785e-18)
(17.48316 4.084907 -3.942336e-20)
(17.1752 4.734735 0)
(16.81596 5.359503 9.686456e-18)
(16.40117 5.958816 0)
(15.94074 6.52586 -6.846191e-20)
(15.43006 7.048699 6.863994e-20)
(14.86565 7.524191 8.208938e-18)
(14.25504 7.945832 -5.762808e-20)
(13.60512 8.313423 7.17793e-18)
(12.92365 8.6233 -6.643316e-18)
(12.21412 8.872799 0)
(11.48694 9.070433 3.959935e-20)
(10.74883 9.211445 -4.867547e-18)
(9.995336 9.282956 -8.273149e-18)
(9.231333 9.286869 0)
(8.469263 9.233471 -2.833688e-18)
(7.717964 9.123896 -1.407024e-20)
(6.978078 8.95065 1.466342e-18)
(6.250737 8.713168 3.637167e-21)
(5.542314 8.417661 -3.681393e-21)
(4.857739 8.060213 -5.040152e-19)
(4.200097 7.644642 1.156698e-18)
(3.580003 7.176199 0)
(2.998653 6.660479 0)
(2.461098 6.101095 -1.776061e-20)
(1.971424 5.499823 0)
(1.53272 4.858337 0)
(1.146833 4.180013 0)
(0.8184559 3.475892 -2.471183e-18)
(0.5463181 2.755461 1.989145e-20)
(0.3408342 2.011021 1.123254e-20)
(0.1913627 1.257383 -5.45544e-21)
(0.1067623 0.5261543 -7.564925e-19)
(0.08410732 -0.1746728 3.056125e-21)
(0.1370569 -0.9386691 -7.457358e-19)
(0.2404462 -1.751236 1.416866e-18)
(0.4119213 -2.54871 1.078506e-20)
(0.647983 -3.315664 -2.535683e-18)
(0.9438553 -4.052897 -3.706214e-20)
(1.298437 -4.760289 2.180554e-18)
(1.708048 -5.431633 -1.930784e-18)
(2.173194 -6.06668 0)
(2.686406 -6.665407 -5.568264e-18)
(3.246021 -7.213413 -1.504766e-20)
(3.849178 -7.713721 1.606703e-18)
(4.490189 -8.170309 9.755633e-19)
(5.16661 -8.570257 0)
(5.876656 -8.916108 0)
(6.611181 -9.212451 0)
(7.363722 -9.44231 1.57997e-20)
(8.128966 -9.602489 -1.568987e-20)
(8.906173 -9.703797 3.011261e-18)
(9.690019 -9.744538 5.406712e-21)
(10.47636 -9.721121 -4.4065e-18)
(11.25938 -9.6382 -7.774341e-20)
(12.02883 -9.491068 1.12581e-17)
(12.77664 -9.277267 6.230459e-18)
(13.49834 -8.999702 -5.060534e-20)
(14.1965 -8.664644 7.218538e-18)
(14.86631 -8.276712 5.886192e-20)
(15.49935 -7.832166 -6.647326e-20)
(16.08813 -7.336558 6.619057e-20)
(16.62897 -6.792577 7.238593e-20)
(17.1214 -6.206772 9.496902e-18)
(17.56197 -5.583733 -7.470452e-20)
(17.93429 -4.925264 0)
(18.25226 -4.241542 0)
(18.53344 -3.545173 0)
(18.76155 -2.846097 0)
(18.91457 -2.150113 1.96637e-20)
(18.96915 -1.456029 -1.959757e-20)
(18.88036 -0.8147901 1.189203e-18)
(18.50097 -0.3010512 4.52219e-21)
(17.08216 0.04940362 0)
(12.69582 0.2909209 -1.083936e-18)
(8.190203 0.5927777 2.233137e-18)
(0.8414829 -0.2786848 -2.259188e-18)
(-7.002157 -2.125658 5.330788e-20)
(-6.356392 -1.632137 -7.893624e-18)
(-3.194443 -0.3549672 4.269087e-20)
(-0.9486843 0.1425245 0)
(0.5515971 0.4580288 4.501946e-18)
(1.160365 0.7627639 -6.438013e-18)
(2.787395 1.820425 -1.139085e-18)
(7.035139 3.862316 1.132409e-21)
(0.8712244 -0.5492763 -2.668944e-20)
(-7.133707 -5.197863 2.565743e-20)
(-6.880199 -4.516587 0)
(-6.606431 -4.676076 7.388223e-18)
(-5.611331 -4.160128 5.648242e-18)
(-4.030899 -3.09465 1.702787e-20)
(-2.082106 -1.368735 -1.482856e-18)
(0.5889526 1.039308 8.873271e-19)
(2.299381 2.458898 3.427847e-19)
(1.370258 1.403303 -2.781596e-21)
(-0.3305537 -0.5876692 1.454129e-19)
(-0.3343914 -0.294167 3.815712e-22)
(0.5844028 1.412176 -4.344015e-19)
(1.666157 3.12309 1.803783e-20)
(2.188854 4.187465 1.776599e-21)
(2.205279 4.605563 -1.575789e-20)
(2.125495 4.765026 0)
(2.123449 4.800241 0)
(1.577895 3.167451 -3.193674e-18)
(-0.2131121 -1.8464 0)
(-1.133491 -3.983882 -2.242892e-18)
(-0.6021424 -0.8183977 6.807087e-19)
(-0.09023574 0.8493331 -6.405887e-21)
(0.2715421 1.75506 6.559229e-21)
(0.1086262 -1.532629 3.765875e-19)
(-0.07040559 -4.503479 -1.96474e-19)
(-0.1347467 -3.775235 -1.065469e-19)
(-0.1488227 -2.776057 9.501525e-20)
(-0.1299868 -1.676874 -2.171638e-19)
(-0.1836063 -0.588853 8.932224e-21)
(-0.3194735 0.5440286 -6.340947e-19)
(-0.434719 1.480362 0)
(-0.5982565 2.128355 -3.49436e-18)
(-0.7398318 2.581662 -3.194538e-20)
(-0.8044887 2.727517 2.157177e-18)
(-0.7028515 2.364704 4.388077e-18)
(-0.4587631 1.519812 4.473878e-18)
(-0.1909364 0.5630801 4.613411e-18)
(0.08785436 0.1739837 -3.525295e-20)
(0.8352651 -0.8840269 0)
(1.332498 -1.76421 0)
(1.477428 -2.035472 4.225043e-18)
(1.617457 -2.184772 4.15979e-18)
(1.73841 -2.214643 3.880296e-18)
(1.970699 -2.305427 5.852712e-20)
(2.186137 -2.388079 0)
(1.703395 -1.97346 3.29967e-18)
(0.6047311 -1.019995 3.492983e-18)
(-0.5716945 0.06279442 -4.141403e-18)
(-1.744098 0.9321602 0)
(-2.985804 1.68253 5.734334e-18)
(-4.223805 2.3058 0)
(-5.746918 2.871106 -8.241587e-18)
(-6.889698 3.764123 0)
(-6.767596 4.783476 -8.815171e-18)
(-1.00757 2.423804 -8.619845e-18)
(7.203134 -2.952833 0)
(6.195635 -2.818327 0)
(6.673491 -2.340429 -8.585362e-21)
(6.902248 -2.125456 -3.072853e-18)
(6.42644 -2.002787 3.567143e-18)
(4.941736 -1.620523 9.825719e-18)
(2.217589 -0.6279943 -3.501437e-18)
(-1.083904 0.6581426 2.938245e-18)
(8.294616 0.5860108 -9.784762e-19)
(16.34661 0.6652771 0)
(17.85453 1.088327 0)
(17.85784 1.478106 -1.897958e-18)
(17.56274 1.979167 -2.063073e-18)
(17.51873 2.62912 -4.136586e-18)
(17.41608 3.30506 4.140141e-18)
(17.25791 3.990041 9.777594e-20)
(17.03349 4.650566 -6.51281e-20)
(16.74227 5.284286 0)
(16.37916 5.879881 0)
(15.96012 6.446055 7.596692e-18)
(15.49775 6.983197 -7.323484e-18)
(14.98822 7.472925 0)
(14.42772 7.914717 0)
(13.82442 8.301499 9.458142e-20)
(13.18341 8.636112 -5.983543e-18)
(12.51386 8.912477 0)
(11.8195 9.1276 -4.852901e-18)
(11.10846 9.293506 -4.367113e-18)
(10.38938 9.403769 -3.809909e-18)
(9.658689 9.443863 3.327741e-18)
(8.917457 9.41913 -3.966784e-20)
(8.179138 9.340371 2.278901e-18)
(7.452343 9.207921 0)
(6.739467 9.012595 -1.196065e-18)
(6.040716 8.754827 -5.602719e-21)
(5.359958 8.442435 8.500818e-21)
(4.707939 8.067416 -4.740367e-19)
(4.079584 7.638867 0)
(3.488007 7.159953 -1.51416e-18)
(2.933351 6.636781 -1.72422e-20)
(2.422966 6.071821 2.462606e-18)
(1.957645 5.467928 1.4532e-18)
(1.541727 4.82576 -1.655506e-18)
(1.175631 4.148835 -1.844416e-18)
(0.8636574 3.447564 2.009733e-18)
(0.6033734 2.731946 -2.164073e-18)
(0.4107364 1.992172 -1.115481e-18)
(0.2640254 1.244503 2.363244e-18)
(0.1775747 0.5184743 1.237109e-18)
(0.1539702 -0.1817961 2.502297e-21)
(0.2174478 -0.940172 6.171892e-19)
(0.3157791 -1.74538 -9.221421e-21)
(0.478391 -2.534938 0)
(0.7017575 -3.295533 -1.588537e-20)
(0.9802718 -4.028461 -1.360639e-20)
(1.314887 -4.732959 -1.726129e-18)
(1.700341 -5.403393 3.170916e-18)
(2.142692 -6.03826 -1.38711e-18)
(2.628076 -6.6404 2.258849e-18)
(3.157466 -7.194249 1.606905e-20)
(3.732421 -7.701711 0)
(4.34262 -8.169433 8.491374e-19)
(4.98767 -8.582795 5.124432e-22)
(5.668198 -8.94346 2.124659e-19)
(6.373029 -9.258222 0)
(7.095107 -9.50944 1.325114e-18)
(7.833124 -9.691765 0)
(8.583776 -9.81834 -5.249969e-20)
(9.341116 -9.887315 2.96304e-18)
(10.10494 -9.89214 0)
(10.86501 -9.841547 -4.092164e-18)
(11.61378 -9.728576 -4.616013e-18)
(12.34332 -9.550102 -5.107926e-18)
(13.04882 -9.308339 0)
(13.73468 -9.008009 -1.205636e-17)
(14.3942 -8.656425 9.66079e-20)
(15.01984 -8.247491 0)
(15.6039 -7.788043 0)
(16.14281 -7.278938 0)
(16.63683 -6.726142 7.687115e-18)
(17.07816 -6.14064 -7.942447e-18)
(17.45918 -5.51733 0)
(17.77322 -4.859062 0)
(18.02378 -4.173319 4.134833e-18)
(18.21439 -3.464472 3.29089e-20)
(18.33469 -2.741407 0)
(18.37848 -2.013379 0)
(18.3663 -1.299238 -1.981403e-18)
(18.36397 -0.6595382 2.308045e-19)
(18.62507 -0.1836593 0)
(17.85019 0.2328917 7.901687e-19)
(15.34817 0.6180156 3.121729e-20)
(5.352372 -0.3569001 -1.086382e-20)
(-4.765798 -1.804715 -3.58086e-20)
(-0.04998858 0.02766193 6.987729e-18)
(2.08588 1.346481 4.253552e-18)
(4.01096 1.9459 5.195342e-20)
(5.072344 2.155346 2.285016e-20)
(5.078185 2.319231 2.476872e-18)
(4.918395 2.900814 9.036592e-19)
(6.506298 3.4198 0)
(-0.8905806 -2.412955 1.087015e-18)
(-6.201563 -5.137904 0)
(-6.485866 -4.287138 -9.599436e-20)
(-6.368584 -4.528998 -6.025529e-18)
(-5.692475 -4.039507 5.877809e-20)
(-4.389286 -3.134094 -5.950228e-20)
(-2.655767 -1.452304 1.185581e-18)
(-0.1206966 0.8026092 -3.528554e-19)
(2.2273 2.405008 -2.858142e-19)
(1.441394 1.204273 5.747982e-20)
(-0.4805511 -0.9975124 1.156916e-19)
(-0.470372 -0.3022766 0)
(0.3551847 1.492165 -6.208224e-21)
(1.505243 3.144347 0)
(2.105499 4.11473 -2.388096e-18)
(2.201496 4.517324 2.960641e-18)
(2.089072 4.525065 0)
(2.04295 4.389738 0)
(2.189117 4.11477 5.079603e-18)
(0.9951017 0.7679185 -1.074087e-18)
(-0.6039197 -2.272686 1.907845e-18)
(-0.6265832 0.06965584 -4.608904e-21)
(-0.2381568 0.5523864 4.885367e-21)
(0.2463129 0.04663931 0)
(0.1831648 -3.610767 -2.90302e-19)
(-0.01021032 -4.748802 3.148097e-19)
(-0.1441594 -3.431549 8.880562e-20)
(-0.2732439 -2.759215 -1.555356e-19)
(-0.2711916 -1.707603 -6.031669e-21)
(-0.3203147 -0.6159388 6.151006e-21)
(-0.4531997 0.5151778 -1.759484e-20)
(-0.5363195 1.483523 1.765352e-20)
(-0.6822396 2.144717 1.432528e-18)
(-0.8007801 2.629301 -2.624493e-20)
(-0.8511217 2.891657 -1.77881e-18)
(-0.703111 2.6123 5.496648e-20)
(-0.3952385 1.692945 -3.586797e-18)
(-0.05389535 0.5231612 -5.667746e-20)
(0.4716492 -0.3418843 0)
(1.068463 -1.078186 0)
(1.26418 -1.533709 -3.577736e-18)
(1.380632 -1.815973 -3.559877e-18)
(1.493082 -1.968079 -6.896857e-18)
(1.547641 -1.938592 -3.218401e-18)
(1.733251 -2.003858 0)
(1.924235 -2.134974 0)
(1.330286 -1.788015 -5.420174e-18)
(0.2169305 -0.9267097 -5.708207e-18)
(-0.8733752 0.09667719 5.792701e-20)
(-1.851635 0.8182305 -1.257986e-19)
(-2.703615 1.296618 -9.406508e-18)
(-3.551652 1.682591 -5.821571e-18)
(-4.898502 2.066559 6.924606e-18)
(-6.022683 3.197493 8.994706e-18)
(-5.235155 4.457926 7.043214e-18)
(-1.705763 3.738162 3.558191e-18)
(6.654012 -2.168396 0)
(8.686727 -3.511057 -5.895613e-20)
(10.46013 -3.399001 -4.256999e-18)
(11.21614 -3.312331 2.866005e-20)
(11.23984 -3.285766 3.46528e-20)
(10.5736 -2.949715 -3.625237e-18)
(8.969268 -1.675815 -2.414307e-18)
(8.540933 0.301925 -5.325652e-20)
(15.00089 0.9695989 -7.137113e-19)
(18.37351 0.8384339 -3.408502e-19)
(17.58198 0.8877352 -2.861289e-21)
(17.46127 1.15808 0)
(17.56472 1.581735 -2.617035e-20)
(17.64346 2.163538 1.74156e-18)
(17.5973 2.798848 -6.849452e-18)
(17.46211 3.472352 5.284e-20)
(17.25 4.130135 -3.394577e-18)
(16.96014 4.773794 -1.017876e-19)
(16.60304 5.378292 -6.384004e-18)
(16.18687 5.959469 1.672077e-21)
(15.72645 6.517243 6.041768e-18)
(15.2201 7.025093 -5.676847e-18)
(14.66167 7.48828 0)
(14.0596 7.896078 7.653804e-20)
(13.4177 8.254427 -7.701445e-20)
(12.74548 8.555655 0)
(12.04647 8.796561 3.998278e-18)
(11.32957 8.988134 7.095293e-20)
(10.60344 9.123949 3.185111e-18)
(9.865821 9.188238 -2.679793e-18)
(9.11892 9.184384 -2.238149e-18)
(8.371246 9.128084 -1.842511e-18)
(7.635941 9.016525 -1.356575e-18)
(6.915028 8.840354 1.094301e-20)
(6.206854 8.601139 -1.105315e-20)
(5.516053 8.306978 0)
(4.854432 7.94861 3.87203e-19)
(4.215944 7.535816 -1.621572e-20)
(3.61514 7.071028 1.26005e-18)
(3.051807 6.560737 1.630486e-18)
(2.535411 6.006814 -2.00361e-18)
(2.063864 5.413377 -1.192461e-18)
(1.642528 4.780909 -3.958616e-21)
(1.271374 4.113167 1.512552e-18)
(0.9571588 3.4197 2.650883e-20)
(0.6930552 2.711847 1.733337e-18)
(0.5014513 1.977333 1.470993e-20)
(0.3525088 1.233873 -9.869206e-19)
(0.2629486 0.511349 -5.039042e-19)
(0.2379927 -0.1922665 -6.227717e-23)
(0.3138876 -0.9454476 4.895052e-19)
(0.4125162 -1.74292 7.549507e-21)
(0.5744492 -2.524547 -9.113034e-19)
(0.7999497 -3.277087 1.719883e-18)
(1.081263 -4.000727 0)
(1.419317 -4.69449 -3.604363e-21)
(1.8083 -5.353177 -1.304219e-18)
(2.256888 -5.975454 1.168741e-18)
(2.746884 -6.565544 -1.94651e-18)
(3.285546 -7.104517 2.089496e-20)
(3.871509 -7.596536 -2.069513e-20)
(4.488152 -8.050663 -6.977944e-19)
(5.143129 -8.447151 0)
(5.837913 -8.788264 -1.811158e-19)
(6.550441 -9.086859 1.909838e-20)
(7.281429 -9.319109 -6.069799e-20)
(8.030045 -9.480388 -1.45885e-18)
(8.789667 -9.586146 -2.008987e-18)
(9.555416 -9.633021 -2.090041e-20)
(10.32703 -9.614635 2.811582e-18)
(11.09586 -9.538589 -4.761746e-20)
(11.85095 -9.400799 -3.66963e-18)
(12.58624 -9.195759 0)
(13.29853 -8.924951 4.45134e-18)
(13.98829 -8.598337 4.894503e-18)
(14.64783 -8.224307 5.063021e-18)
(15.27286 -7.79189 -5.378784e-18)
(15.85479 -7.310684 5.750852e-18)
(16.3912 -6.77995 0)
(16.88248 -6.206373 -1.257703e-17)
(17.32015 -5.605355 1.310371e-17)
(17.69645 -4.966175 -1.548589e-19)
(18.0066 -4.296521 -3.347464e-18)
(18.25235 -3.599733 -3.39157e-18)
(18.42473 -2.899193 0)
(18.51436 -2.194658 1.722974e-18)
(18.5049 -1.504442 -1.692706e-18)
(18.39254 -0.858616 8.223945e-19)
(18.16441 -0.3063254 -1.98817e-19)
(18.09991 0.05890573 -3.610308e-19)
(18.16829 0.3697665 1.039042e-20)
(18.51589 0.4985452 -1.155912e-18)
(12.02499 -0.4455921 -2.749139e-20)
(2.021403 -0.9077346 0)
(4.468955 1.670554 0)
(7.109112 3.198356 -7.898974e-20)
(8.47524 3.641406 7.884697e-20)
(9.007813 3.621374 0)
(8.489253 3.597736 0)
(7.124912 3.759227 0)
(6.016702 2.656308 -7.73672e-19)
(-1.691551 -3.866636 -1.872821e-18)
(-4.783418 -4.726889 3.860036e-18)
(-5.836198 -3.798002 -5.172789e-18)
(-5.929427 -4.195449 -1.522436e-19)
(-5.528634 -3.724005 3.835897e-18)
(-4.520041 -2.968631 2.47504e-18)
(-3.076004 -1.370083 9.89701e-21)
(-1.014892 0.4859705 -6.207656e-21)
(1.733131 1.941245 -4.632007e-21)
(1.104386 0.456418 1.061227e-21)
(-0.5252847 -1.269164 -9.682935e-20)
(-0.6285245 -0.251197 0)
(0.05744436 1.532085 2.878978e-19)
(1.297543 3.146698 -1.166133e-18)
(1.984434 4.042815 1.972705e-18)
(2.105635 4.408231 0)
(2.030209 4.435397 0)
(1.93634 4.101818 -3.795711e-20)
(2.287419 3.971037 -2.095002e-18)
(1.927291 2.576895 8.808788e-19)
(0.2296151 0.08484665 -7.680375e-19)
(-0.5612906 0.5391139 0)
(-0.3035344 -0.4525858 0)
(0.2460119 -2.303668 0)
(0.2499394 -4.828126 -2.333818e-19)
(-0.06579027 -4.441777 -1.357484e-19)
(-0.2914148 -3.533354 -1.452948e-19)
(-0.4101086 -2.769401 6.357866e-20)
(-0.4217836 -1.750625 0)
(-0.4750074 -0.6743031 -3.48872e-19)
(-0.5863342 0.4437354 0)
(-0.6426214 1.457646 -1.013307e-18)
(-0.7696512 2.125183 0)
(-0.8619251 2.619389 0)
(-0.8675178 2.951329 -1.44639e-18)
(-0.6883115 2.854577 -2.936644e-18)
(-0.3450177 1.99614 2.95351e-18)
(0.03822676 0.7265209 -3.027939e-18)
(0.6486992 -0.4028691 3.007682e-18)
(1.108615 -0.9701289 0)
(1.219121 -1.355925 5.923852e-18)
(1.395329 -1.752562 2.933985e-18)
(1.476411 -1.925941 2.935347e-18)
(1.418666 -1.77071 -8.639444e-20)
(1.487491 -1.680724 -7.569606e-20)
(1.686998 -1.888297 -2.289273e-18)
(1.06667 -1.731095 4.434342e-18)
(-0.03530737 -0.9776351 2.329959e-18)
(-0.9696019 -0.03858231 9.512529e-20)
(-1.590324 0.4584041 3.1922e-18)
(-1.95041 0.6189428 3.974731e-18)
(-2.620169 0.889958 4.888967e-18)
(-3.947906 1.112076 0)
(-4.928697 2.484453 1.280205e-19)
(-3.884408 4.109885 0)
(-1.318297 4.557683 3.044842e-18)
(6.740905 -1.326356 1.553342e-18)
(10.76112 -3.755005 2.638069e-18)
(13.01588 -3.927809 -8.285115e-20)
(14.0577 -3.97631 5.49306e-20)
(14.75422 -4.058065 -4.249952e-18)
(15.53463 -3.821839 0)
(16.03346 -2.437378 -1.633524e-18)
(16.32592 -0.02700184 -1.573218e-18)
(18.11991 1.112799 1.13543e-18)
(17.82019 0.9015093 2.693423e-19)
(17.0219 0.9600773 0)
(17.22536 1.408653 6.485727e-19)
(17.30842 1.934028 0)
(17.35309 2.555315 0)
(17.29318 3.196596 2.862407e-18)
(17.1556 3.857436 -4.363944e-20)
(16.94522 4.494938 4.606124e-20)
(16.6595 5.112903 -2.674955e-18)
(16.3084 5.68622 5.361304e-18)
(15.89845 6.236523 -5.101364e-18)
(15.44755 6.764181 -4.908481e-18)
(14.95681 7.231885 2.234128e-19)
(14.41188 7.662226 -1.418186e-19)
(13.827 8.035035 -1.243672e-19)
(13.20168 8.363739 -3.569915e-18)
(12.5483 8.637263 -3.619698e-18)
(11.8687 8.850994 -9.468983e-20)
(11.16912 9.021505 3.00123e-18)
(10.46505 9.135803 0)
(9.750895 9.178991 2.206583e-18)
(9.021755 9.160784 1.842389e-18)
(8.292816 9.092138 1.425354e-18)
(7.578656 8.969574 1.116141e-18)
(6.877787 8.785037 0)
(6.189712 8.53795 0)
(5.515756 8.240845 -1.187341e-20)
(4.873533 7.878937 0)
(4.24899 7.466885 0)
(3.66369 7.003671 1.096095e-18)
(3.116514 6.495766 -2.233782e-20)
(2.609468 5.947608 -1.280866e-20)
(2.145313 5.360048 -3.267912e-20)
(1.731956 4.733747 2.270768e-18)
(1.369604 4.072325 0)
(1.065236 3.385343 0)
(0.7975669 2.688678 1.466027e-18)
(0.6111263 1.960605 7.366986e-19)
(0.4595931 1.221122 7.953871e-19)
(0.3661596 0.5028813 -4.122846e-19)
(0.3404572 -0.2054361 0)
(0.4325635 -0.9494147 -3.252999e-22)
(0.5317836 -1.738086 2.408889e-20)
(0.6833882 -2.511736 7.227476e-19)
(0.9014509 -3.253342 -1.409463e-18)
(1.176959 -3.964425 -3.961545e-20)
(1.509073 -4.646402 1.204616e-18)
(1.891406 -5.29463 3.538241e-20)
(2.333316 -5.908415 1.887534e-18)
(2.808596 -6.494138 -1.45983e-20)
(3.332738 -7.029158 -1.318052e-18)
(3.908689 -7.518538 3.460366e-20)
(4.509844 -7.973863 0)
(5.143559 -8.373692 2.757947e-19)
(5.823277 -8.717948 0)
(6.520763 -9.022212 0)
(7.229146 -9.26471 -8.577828e-19)
(7.957807 -9.435952 2.397314e-18)
(8.699982 -9.552886 5.469183e-20)
(9.444837 -9.614744 -1.099402e-19)
(10.19613 -9.612817 -2.309255e-18)
(10.94405 -9.557552 -2.61007e-18)
(11.6787 -9.442131 3.123015e-18)
(12.39237 -9.263611 -3.380591e-18)
(13.08269 -9.022465 -7.571317e-20)
(13.75507 -8.72333 0)
(14.39682 -8.381552 -4.38295e-18)
(15.0063 -7.981001 9.211465e-18)
(15.57361 -7.535394 -4.892669e-18)
(16.0963 -7.041424 0)
(16.5777 -6.503853 9.322124e-20)
(17.00698 -5.937703 -5.248684e-18)
(17.37685 -5.330425 -8.365179e-20)
(17.68338 -4.689174 1.357823e-19)
(17.92565 -4.018117 -8.677223e-20)
(18.09996 -3.330995 0)
(18.19293 -2.642679 -2.745746e-18)
(18.19514 -1.947047 1.31742e-18)
(18.10646 -1.270865 6.458696e-19)
(17.91275 -0.6479262 -1.004003e-20)
(17.75432 -0.1599638 2.940906e-19)
(17.42713 0.2781894 5.452701e-19)
(18.53432 0.2723906 0)
(17.00826 -0.5323717 9.004071e-19)
(11.62673 0.07480575 -9.90421e-20)
(11.78034 3.054408 3.800627e-18)
(12.33145 4.754983 0)
(12.24075 4.951432 0)
(12.01992 4.675286 0)
(11.15956 4.422733 1.604952e-20)
(9.151221 4.233489 5.24591e-19)
(6.024837 1.813351 5.81967e-19)
(-1.50105 -4.760823 7.985341e-19)
(-3.515755 -4.314608 -6.609888e-18)
(-4.892194 -3.191158 4.419919e-18)
(-5.27603 -3.760502 0)
(-5.054626 -3.179047 -3.169518e-18)
(-4.307257 -2.518319 -2.00268e-18)
(-3.228205 -1.059215 8.571608e-19)
(-1.877435 0.1475103 -1.729223e-20)
(0.976003 1.1762 -2.683652e-21)
(0.5465141 -0.5679188 2.426237e-21)
(-0.5305769 -1.414426 0)
(-0.863933 -0.2555337 -3.918862e-20)
(-0.3283679 1.467215 1.87207e-20)
(1.008165 3.106783 1.909411e-18)
(1.818795 3.952351 -1.680023e-18)
(2.002339 4.284721 1.232761e-19)
(2.008854 4.296021 -2.30278e-18)
(1.946329 3.990178 0)
(2.202739 3.52977 -1.830199e-18)
(2.341811 3.138798 7.277874e-19)
(0.8500736 1.558972 -3.653118e-20)
(-0.3896899 0.5713729 4.108133e-19)
(-0.2742239 -2.056842 -2.021984e-20)
(0.2897433 -4.156793 6.386572e-21)
(0.2662787 -5.199029 1.955539e-19)
(-0.1469979 -4.216632 -1.81172e-21)
(-0.3726762 -3.652833 1.658994e-21)
(-0.5757021 -2.827839 3.469237e-21)
(-0.5993047 -1.80014 1.160974e-19)
(-0.6587265 -0.7445036 2.845531e-19)
(-0.7601982 0.3300561 -3.450166e-19)
(-0.7754349 1.402505 8.287871e-19)
(-0.8670053 2.088104 0)
(-0.9288387 2.593155 1.021723e-18)
(-0.8917815 2.94244 1.263768e-18)
(-0.6585699 3.028761 2.403138e-18)
(-0.2856582 2.369292 0)
(0.1167789 1.109753 0)
(0.721739 -0.1800388 -2.44966e-18)
(1.105934 -0.7846581 -7.598739e-20)
(1.265612 -1.285415 -2.363806e-18)
(1.489551 -1.765313 -2.417582e-18)
(1.510111 -1.968734 -2.352413e-18)
(1.353668 -1.750784 2.195503e-18)
(1.285475 -1.482555 -1.983416e-18)
(1.431871 -1.62778 1.833771e-18)
(0.8109876 -1.680682 -1.760733e-18)
(-0.2371807 -1.114208 0)
(-0.8285969 -0.3652737 0)
(-0.9387621 -0.1338202 -2.768729e-18)
(-0.9256671 -0.2364211 0)
(-1.661248 0.04055854 -1.463728e-19)
(-2.865849 -0.01014318 -3.574748e-20)
(-3.403754 1.53528 -6.102819e-18)
(-2.164395 3.572571 -1.790197e-19)
(0.02811945 4.922545 1.78796e-19)
(7.463817 -0.4724077 -1.18469e-18)
(11.85941 -3.449227 1.611959e-21)
(13.71056 -3.834911 1.305471e-18)
(14.68823 -4.007744 -5.233209e-20)
(15.74624 -4.204864 1.867465e-18)
(17.23308 -4.103972 -6.070646e-20)
(18.663 -2.837806 5.496922e-18)
(18.98825 -0.4322453 3.805182e-20)
(18.29968 0.9011163 -4.53199e-21)
(17.16183 0.7627596 -4.846196e-19)
(17.06047 0.8520788 -4.018253e-21)
(17.24864 1.23299 -5.371297e-19)
(17.33769 1.676892 -3.482243e-20)
(17.38816 2.245439 -1.084571e-18)
(17.32723 2.849542 2.241536e-18)
(17.18614 3.505958 -2.231755e-18)
(16.97995 4.132044 4.296477e-18)
(16.69592 4.767799 2.341772e-18)
(16.34668 5.356168 0)
(15.93516 5.925026 0)
(15.48461 6.473935 3.980491e-18)
(14.9946 6.960433 3.793483e-18)
(14.44982 7.408402 0)
(13.86777 7.792409 -1.000704e-19)
(13.24252 8.134978 3.237321e-18)
(12.58638 8.427332 2.884406e-18)
(11.90789 8.652279 2.53917e-18)
(11.21448 8.827745 -6.763471e-20)
(10.51259 8.953901 -1.938816e-18)
(9.795784 9.01272 4.95678e-20)
(9.071423 8.999988 -5.004213e-20)
(8.351123 8.934495 -1.202829e-18)
(7.640121 8.820923 8.700254e-19)
(6.93557 8.65129 0)
(6.255712 8.408128 0)
(5.584526 8.120716 4.355997e-20)
(4.95139 7.764356 -8.899333e-21)
(4.331568 7.360572 -8.53398e-21)
(3.762217 6.90128 -8.453151e-19)
(3.223841 6.400234 -2.236868e-18)
(2.709948 5.868745 1.291956e-18)
(2.248534 5.293102 -1.580566e-18)
(1.839919 4.677328 -8.882419e-19)
(1.486752 4.024416 -3.050765e-20)
(1.190971 3.342421 0)
(0.9171811 2.660601 -1.144042e-18)
(0.7445169 1.942452 -3.860995e-20)
(0.5877383 1.20655 -6.611533e-19)
(0.4910854 0.4934851 3.531245e-19)
(0.4667352 -0.2205147 2.478476e-24)
(0.5743963 -0.9515075 -3.480866e-19)
(0.6649874 -1.733353 2.979696e-20)
(0.8114262 -2.494293 -6.298607e-19)
(1.020848 -3.216481 1.155173e-18)
(1.28996 -3.910925 -1.113526e-18)
(1.617521 -4.580598 2.645028e-21)
(1.995647 -5.217758 9.179147e-19)
(2.441907 -5.820331 -1.502799e-18)
(2.908335 -6.400655 1.293974e-18)
(3.421593 -6.930305 9.868259e-19)
(3.998309 -7.411102 8.171155e-21)
(4.606745 -7.854462 8.600644e-21)
(5.233102 -8.247532 -2.146044e-19)
(5.896568 -8.592942 -2.888913e-20)
(6.593878 -8.889013 1.566302e-20)
(7.301227 -9.121515 6.126035e-19)
(8.022082 -9.286603 -1.917973e-18)
(8.756439 -9.39985 1.2424e-18)
(9.506078 -9.444469 -5.658496e-20)
(10.25472 -9.43275 -1.851307e-18)
(10.99517 -9.373428 4.292162e-18)
(11.72999 -9.244774 7.927193e-20)
(12.44077 -9.05587 2.622363e-18)
(13.13141 -8.798653 -3.055073e-18)
(13.80569 -8.482738 9.464937e-20)
(14.44629 -8.127888 -3.456135e-18)
(15.05619 -7.708853 -3.533702e-18)
(15.62255 -7.247347 1.212803e-19)
(16.1464 -6.730339 -4.041988e-18)
(16.62811 -6.170942 4.169292e-18)
(17.05697 -5.585632 0)
(17.42471 -4.96127 0)
(17.72727 -4.303855 2.241217e-18)
(17.96575 -3.631017 2.226808e-18)
(18.1394 -2.951951 0)
(18.23339 -2.273261 1.174536e-18)
(18.23324 -1.605472 1.061394e-18)
(18.13922 -0.9841771 -5.414143e-19)
(17.93969 -0.4304838 1.228137e-19)