/*--------------------------------*- C++ -*----------------------------------*\
| =========                 |                                                 |
| \\      /  F ield         | OpenFOAM: The Open Source CFD Toolbox           |
|  \\    /   O peration     | Version:  2406                                  |
|   \\  /    A nd           | Website:  www.openfoam.com                      |
|    \\/     M anipulation  |                                                 |
\*---------------------------------------------------------------------------*/
FoamFile
{
    version     2.0;
    format      ascii;
    arch        "LSB;label=32;scalar=64";
    class       surfaceScalarField;
    location    "0.36";
    object      phi;
}
// * * * * * * * * * * * * * * * * * * * * * * * * * * * * * * * * * * * * * //

dimensions      [0 3 -1 0 0 0 0];

oriented        oriented;

internalField   nonuniform List<scalar> 
326221
(
-0.002304315
-0.005044342
0.007348657
-0.001279718
-0.001024597
0.0007556884
-0.002035406
-0.0002864271
0.001042115
-0.001021969
0.0007355421
-0.0004101432
-0.000611826
-0.0001692032
-0.00024094
0.0001883382
-0.0003575414
0.001047916
-0.0008595777
0.00229664
-0.001248724
0.002663184
-0.0003665444
0.001569637
0.001093547
0.0005976496
0.0009719878
0.001186882
-0.0005892324
0.002567718
-0.001380836
0.002892306
-0.0003245878
0.002008683
0.0008836227
0.00105618
0.0009525033
-0.0009874757
0.002043656
-0.003789337
0.002801862
-0.005477716
0.001688379
-0.00606693
0.0005892141
-0.006041462
-2.546845e-05
-0.005651142
-0.0003903198
-0.005066872
-0.0005842696
-0.004213999
-0.0008528738
-0.003248603
-0.0009653958
-0.002189984
-0.001058619
-0.0007910912
-0.001398893
0.0003873051
-0.001178396
0.001625144
-0.001237838
0.003022059
-0.001396915
0.003844488
-0.0008224291
0.003211593
0.0006328947
0.001983119
0.001228474
0.001117464
0.0008656552
0.000568557
0.0005489073
0.0004427883
0.0001257687
0.000674996
-0.0002322077
0.0007194128
-4.44168e-05
0.0006939301
2.548265e-05
0.001333333
-0.0006394031
0.002263957
-0.0009306237
0.002828983
-0.0005650258
0.00290541
-7.642743e-05
0.002552221
0.000353189
0.002290026
0.0002621957
0.00229672
-6.694562e-06
0.002390633
-9.391309e-05
0.0008164135
0.00157422
-0.00157141
0.002387823
-0.001646378
7.496845e-05
-0.001937698
0.00029132
-0.002306724
0.000369026
-0.002182783
-0.0001239414
-0.00187034
-0.0003124429
-0.001542298
-0.0003280416
-0.00116722
-0.0003750788
-0.0008833911
-0.0002838285
-0.0007906421
-9.274897e-05
-0.0007466459
-4.399616e-05
-0.0005195355
-0.0002271105
4.496688e-05
-0.0005645023
0.0007450484
-0.0007000816
0.001081988
-0.0003369391
0.0004324832
0.0006495044
-0.000538563
0.0009710462
-0.0009870832
0.0004485202
-0.001157528
0.0001704449
-0.001826566
0.0006690376
-0.002860945
0.001034379
-0.003703518
0.0008425733
-0.004143212
0.0004396934
-0.004296215
0.0001530035
-0.004298482
2.266862e-06
-0.004233339
-6.51432e-05
-0.004138277
-9.506161e-05
-0.004024018
-0.0001142593
-0.003898697
-0.000125321
-0.003761231
-0.0001374658
-0.0036122
-0.0001490312
-0.003456209
-0.0001559913
-0.003288972
-0.0001672372
-0.003058861
-0.0002301103
-0.002896302
-0.0001625597
-0.002724263
-0.0001720382
-0.002554557
-0.0001697068
-0.002378765
-0.0001757917
-0.002197395
-0.0001813699
-0.002020004
-0.0001773912
-0.001831331
-0.0001886731
-0.001647532
-0.0001837987
-0.001473583
-0.0001739488
-0.001297228
-0.0001763553
-0.00112582
-0.0001714083
-0.0009493949
-0.0001764248
-0.0007747135
-0.0001746814
-0.0006168612
-0.0001578523
-0.0004680542
-0.000148807
-0.0002992246
-0.0001688296
-0.0001014214
-0.0001978032
6.634971e-05
-0.0001677711
0.000224315
-0.0001579653
0.0003399054
-0.0001155904
0.0004825956
-0.0001426902
0.0006652292
-0.0001826336
0.0008682301
-0.000203001
0.001053586
-0.0001853562
0.00122384
-0.0001702538
0.001372825
-0.0001489845
0.001527651
-0.0001548268
0.001666773
-0.0001391217
0.001811187
-0.0001444138
0.001959379
-0.0001481919
0.002097422
-0.0001380428
0.002230141
-0.000132719
0.002433726
-0.0002035857
0.002574513
-0.0001407862
0.002699428
-0.0001249157
0.002821852
-0.0001224237
0.002921807
-9.995499e-05
0.003004681
-8.287429e-05
0.003076174
-7.149323e-05
0.003133359
-5.718486e-05
0.003150024
-1.666461e-05
0.003124128
2.589641e-05
0.00303845
8.567752e-05
0.002862263
0.0001761873
0.002487951
0.0003743117
0.001780258
0.0007076929
0.0007361603
0.001044098
-0.0001983208
0.0009344811
-0.0006236964
0.0004253756
-0.001026543
0.0004028462
-0.001898706
0.0008721639
-0.002585297
0.0006865909
-0.002364382
-0.0002209154
-0.0016353
-0.0007290816
-0.0003407537
-0.001294547
0.001578614
-0.001919368
0.001933773
-0.0003551591
-0.0007435321
0.002677306
-0.003310623
0.002567091
-0.003459008
0.0001483854
-0.002509032
-0.0009499761
-0.001627797
-0.0008812349
-0.001007821
-0.0006199765
-0.0006829709
-0.00032485
0.0003362409
-0.001019212
0.000200488
0.0001357529
0.0003103196
-0.0001098316
-0.0003297035
0.0006400231
-0.0006778608
0.0003481573
-0.0005196923
-0.0001581685
-0.0001153981
-0.0004042942
0.0003604689
-0.000475867
0.0008828176
-0.0005223486
0.00144526
-0.0005624428
0.002104771
-0.0006595107
0.002777631
-0.0006728594
0.003468365
-0.0006907347
0.004081665
-0.0006133
0.00465312
-0.0005714551
0.005135331
-0.0004822103
0.005441071
-0.00030574
0.005529846
-8.877574e-05
0.005317947
0.0002118992
0.004774236
0.0005437114
0.003906418
0.0008678179
0.002541481
0.001364937
0.0004307607
0.00211072
-0.001583202
0.002013963
-0.002278685
0.0006954825
-0.002030253
-0.0002484317
-0.001712505
-0.0003177483
-0.001023655
-0.0006888497
9.022115e-05
-0.001113876
0.0004581793
-0.0003679582
-0.0005331564
0.0009913357
-0.002341463
0.001808306
-0.003411892
0.001070429
-0.002270552
-0.00114134
0.0001209472
-0.002391499
0.001976275
-0.001855328
0.00318532
-0.001209045
0.003579646
-0.000394326
0.003582301
-2.654381e-06
0.003407459
0.0001748418
0.00279082
0.0006166384
0.001213133
0.001577687
-0.0006199237
0.001833057
-0.001487119
0.000867195
-0.001502025
1.490652e-05
-0.001042985
-0.0004590407
-0.0001948857
-0.0008480989
8.761722e-05
-0.000282503
-0.0003158359
0.0004034531
0.001424911
-0.001740747
0.002333234
-0.0009083234
-0.005409075
0.007742309
-0.00564844
0.0002393647
-0.00490713
-0.0007413101
-0.00460864
-0.00029849
-0.004311889
-0.000296751
-0.004088304
-0.0002235852
-0.003884017
-0.0002042869
-0.003706246
-0.0001777709
-0.003462275
-0.0002439708
-0.003339509
-0.0001227663
-0.003236804
-0.0001027051
-0.003142126
-9.467769e-05
-0.003058143
-8.398321e-05
-0.002976974
-8.116889e-05
-0.002899486
-7.748825e-05
-0.002825484
-7.400189e-05
-0.002759693
-6.579033e-05
-0.002699459
-6.023438e-05
-0.002641383
-5.807577e-05
-0.00258384
-5.754281e-05
-0.002530296
-5.35442e-05
-0.002478841
-5.145517e-05
-0.002431072
-4.776922e-05
-0.002388527
-4.254493e-05
-0.00234459
-4.393729e-05
-0.002300522
-4.406814e-05
-0.002255623
-4.48984e-05
-0.002213541
-4.208244e-05
-0.002176204
-3.733639e-05
-0.002142405
-3.379894e-05
-0.002106693
-3.571188e-05
-0.002071232
-3.546149e-05
-0.002033495
-3.773707e-05
-0.002000611
-3.288367e-05
-0.001970176
-3.043547e-05
-0.001937984
-3.219196e-05
-0.00190526
-3.27239e-05
-0.001871407
-3.385247e-05
-0.001841168
-3.023993e-05
-0.001813492
-2.76751e-05
-0.001845418
3.19255e-05
-0.001831628
-1.378945e-05
-0.001811903
-1.972556e-05
-0.001791973
-1.992965e-05
-0.001774772
-1.720152e-05
-0.00175685
-1.792166e-05
-0.001741144
-1.570579e-05
-0.001727217
-1.392712e-05
-0.001714061
-1.315614e-05
-0.001697645
-1.641637e-05
-0.001680937
-1.670807e-05
-0.001668043
-1.289373e-05
-0.001657959
-1.00835e-05
-0.001650722
-7.237205e-06
-0.001639718
-1.100429e-05
-0.001625689
-1.402852e-05
-0.001614174
-1.15158e-05
-0.001604901
-9.272175e-06
-0.001593494
-1.140778e-05
-0.001584677
-8.816319e-06
-0.001574607
-1.007074e-05
-0.001563563
-1.104348e-05
-0.001553408
-1.015502e-05
-0.00154165
-1.17584e-05
-0.001512288
-2.936158e-05
-0.001472496
-3.979206e-05
-0.001433958
-3.853755e-05
-0.001382239
-5.171952e-05
-0.001306914
-7.532473e-05
-0.001147573
-0.0001593413
-0.0008721769
-0.000275396
-3.844854e-05
-0.0008337283
0.000813869
-0.0008523176
0.00107565
-0.0002617812
0.001244352
-0.0001687022
0.001332029
-8.767705e-05
0.001391489
-5.945967e-05
0.001443706
-5.221678e-05
0.001477591
-3.388522e-05
0.00148973
-1.213844e-05
0.001497904
-8.174917e-06
0.001517208
-1.930397e-05
0.001536158
-1.89496e-05
0.001551716
-1.555833e-05
0.001561712
-9.99575e-06
0.001571748
-1.003629e-05
0.001582117
-1.036888e-05
0.001595702
-1.358466e-05
0.001608219
-1.251673e-05
0.001617396
-9.177744e-06
0.001627358
-9.961833e-06
0.00164092
-1.356139e-05
0.001653299
-1.237894e-05
0.001665224
-1.192583e-05
0.001680572
-1.534803e-05
0.001693436
-1.286309e-05
0.001711545
-1.810917e-05
0.00173283
-2.128546e-05
0.001750079
-1.724868e-05
0.001763904
-1.38251e-05
0.001779588
-1.568364e-05
0.001798093
-1.850564e-05
0.001809458
-1.136486e-05
0.001773625
3.583326e-05
0.001798984
-2.53593e-05
0.00183055
-3.156621e-05
0.001862734
-3.218356e-05
0.001895263
-3.252901e-05
0.001930353
-3.508981e-05
0.00196355
-3.319686e-05
0.001993787
-3.02379e-05
0.002026409
-3.262186e-05
0.002062765
-3.63556e-05
0.002102668
-3.990331e-05
0.002137721
-3.505302e-05
0.002170952
-3.323025e-05
0.002206497
-3.554534e-05
0.002245241
-3.874377e-05
0.002284721
-3.948086e-05
0.002328668
-4.394622e-05
0.002374382
-4.571389e-05
0.002420428
-4.604664e-05
0.002468148
-4.771983e-05
0.002512617
-4.44687e-05
0.002565526
-5.290889e-05
0.002620652
-5.512617e-05
0.002677984
-5.733222e-05
0.002739719
-6.173542e-05
0.002803466
-6.374674e-05
0.002873912
-7.044582e-05
0.002950878
-7.6966e-05
0.003029384
-7.850647e-05
0.003114431
-8.504664e-05
0.003211158
-9.672681e-05
0.003326376
-0.0001152177
0.003554558
-0.0002281825
0.003717543
-0.0001629847
0.003901824
-0.0001842816
0.004106655
-0.0002048301
0.004369383
-0.000262728
0.004626909
-0.0002575261
0.005256948
-0.0006300397
0.0002126063
0.001027333
3.52951e-05
-0.001914946
0.001456716
-0.0006911634
0.001745696
-0.0004576828
0.00197255
-0.0003145312
0.002152552
-0.0002394611
0.002311713
-0.0002113778
0.002447142
-0.0001693147
0.002557356
-0.0001223526
0.00265429
-0.0001051086
0.00275211
-0.0001171235
0.00284309
-0.0001099303
0.002927877
-0.0001003451
0.003003926
-8.604433e-05
0.003076705
-8.281548e-05
0.003144949
-7.861291e-05
0.003213252
-8.188724e-05
0.003278199
-7.746425e-05
0.003339385
-7.03641e-05
0.003398285
-6.886187e-05
0.00345807
-7.334595e-05
0.003515482
-6.979041e-05
0.003570806
-6.724991e-05
0.003627699
-7.224096e-05
0.003680877
-6.604109e-05
0.003736876
-7.410828e-05
0.003793585
-7.799517e-05
0.003848438
-7.210174e-05
0.003899268
-6.465471e-05
0.003951525
-6.79405e-05
0.004003974
-7.095469e-05
0.004053639
-6.103028e-05
0.004015565
7.390721e-05
0.00407708
-8.687375e-05
0.004141717
-9.620359e-05
0.004206645
-9.711134e-05
0.004271653
-9.753689e-05
0.004337701
-0.0001011384
0.00440323
-9.872501e-05
0.004465644
-9.26519e-05
0.004530372
-9.735048e-05
0.004595689
-0.0001016729
0.004665181
-0.0001093943
0.004730218
-0.0001000907
0.004795408
-9.841984e-05
0.004860865
-0.0001010028
0.004929232
-0.0001071107
0.004997438
-0.000107687
0.0050693
-0.000115808
0.005142896
-0.0001193102
0.005216809
-0.0001199591
0.005293354
-0.0001242653
0.005366708
-0.0001178223
0.005447562
-0.0001337633
0.005528591
-0.0001361547
0.005613444
-0.0001421855
0.005700257
-0.000148548
0.005790503
-0.0001539927
0.005884777
-0.0001647207
0.005985574
-0.000177763
0.006087349
-0.0001802815
0.00619559
-0.0001932871
0.006313013
-0.0002141503
0.006445658
-0.0002478627
0.006753782
-0.0005363057
0.006933958
-0.000343161
0.007140326
-0.0003906493
0.007362659
-0.0004271634
0.007655215
-0.0005552838
0.007897773
-0.0005000842
0.008626005
-0.001358272
0.007732581
0.00110603
-0.009045108
0.008185315
0.001099158
-0.008203342
-0.001583076
-0.007920946
-0.0005808863
-0.007596079
-0.000621618
-0.007353948
-0.0004657161
-0.00712698
-0.000431255
-0.006931583
-0.000373168
-0.006605918
-0.0005696353
-0.006463834
-0.00026485
-0.00633876
-0.00022778
-0.006220199
-0.0002132385
-0.00611141
-0.0001927718
-0.00600459
-0.0001879892
-0.005902709
-0.000179369
-0.005802774
-0.0001739369
-0.005710913
-0.0001576518
-0.005621669
-0.0001494784
-0.005536311
-0.0001434336
-0.005450399
-0.0001434547
-0.005369188
-0.0001347549
-0.005288773
-0.0001318703
-0.005211957
-0.0001245849
-0.005138632
-0.0001158701
-0.005064799
-0.0001177701
-0.004991954
-0.0001169133
-0.004918494
-0.0001183591
-0.004848145
-0.0001124314
-0.004779827
-0.0001056538
-0.004714967
-9.865862e-05
-0.004647208
-0.0001034709
-0.004581515
-0.0001011553
-0.004512878
-0.0001063736
-0.004448516
-9.724581e-05
-0.00438427
-9.46816e-05
-0.004319205
-9.725679e-05
-0.004253199
-9.873019e-05
-0.004186464
-0.0001005875
-0.004121995
-9.470833e-05
-0.004058355
-9.13152e-05
-0.004093982
6.755242e-05
-0.004043068
-6.470379e-05
-0.003990245
-7.254862e-05
-0.003935951
-7.422362e-05
-0.003884184
-6.896783e-05
-0.003829929
-7.217727e-05
-0.003777266
-6.836821e-05
-0.003723637
-6.755666e-05
-0.00366997
-6.682311e-05
-0.003612655
-7.373085e-05
-0.003554665
-7.469889e-05
-0.003497601
-6.99573e-05
-0.003439951
-6.773365e-05
-0.003382063
-6.512472e-05
-0.00331884
-7.422758e-05
-0.003252316
-8.055222e-05
-0.003184496
-7.933641e-05
-0.00311565
-7.81179e-05
-0.003040909
-8.614841e-05
-0.002964835
-8.489038e-05
-0.00288205
-9.285589e-05
-0.002793408
-9.968537e-05
-0.002698446
-0.0001051178
-0.002595841
-0.0001143628
-0.002473005
-0.0001521973
-0.002336441
-0.0001763566
-0.002190116
-0.0001848627
-0.002014189
-0.0002276466
-0.001798102
-0.0002914112
-0.001513765
-0.0004436784
-0.001071275
-0.000717886
-0.001869708
-0.0009626086
0.0001015213
0.0007512557
-0.001668342
0.001345757
-0.001546776
0.0002265911
-0.00112775
-0.0005771947
-0.0006023205
-0.0009297236
4.978152e-05
-0.001127969
0.0007479232
-0.00122049
0.001495941
-0.001310461
0.002353959
-0.001517529
0.003238808
-0.001557708
0.004153786
-0.001605712
0.004989779
-0.001449294
0.005778101
-0.001359777
0.006474271
-0.00117838
0.006980074
-0.0008115429
0.007294987
-0.0004036885
0.007396093
0.0001107925
0.007235349
0.0007044557
0.006797548
0.001305619
0.005879764
0.002282721
0.003675334
0.00431515
-0.0001740467
0.005863344
-0.003148914
0.00367035
-0.00344798
5.06342e-05
-0.002790249
-0.0009754792
-0.001807713
-0.001671386
-0.0004014205
-0.002520169
-1.412709e-05
-0.0007552516
-0.0020566
0.003033809
-0.004758605
0.004510311
-0.004738652
0.001050476
-0.002526377
-0.003353615
0.000176273
-0.005094149
0.002400279
-0.004079334
0.003930714
-0.00273948
0.004534576
-0.0009981876
0.004687797
-0.0001558757
0.004665264
0.0001973747
0.004518159
0.0007637437
0.003359223
0.002736623
0.000513369
0.004678911
-0.001633627
0.003014191
-0.001759733
0.0001410127
-0.0009932947
-0.001225479
2.814019e-05
-0.001869534
0.0007703369
-0.0010247
0.001006743
0.0001670472
0.002378677
-0.003112681
0.0009333233
0.0005370303
0.01686095
-0.002232958
-0.0007373343
0.005358116
-0.00320553
0.001047541
-0.003559363
0.0006451531
-0.003372463
0.000182126
-0.002858925
-0.0006374797
-0.002578769
-0.0005925996
-0.00247649
-0.0004303199
-0.002392751
-0.0004588176
-0.002356456
-0.0003201237
-0.002339135
-0.0001100698
-0.002379004
-4.127616e-06
-0.002376616
-0.0002294981
-0.00200547
-0.0009356486
-0.001216216
-0.001489336
-0.0005098487
-0.001043306
-0.0004447857
0.0005844413
-0.001690724
0.002216984
-0.003684498
0.002442294
-0.005308819
0.001794766
-0.00632923
0.001689449
-0.006980276
0.001685425
-0.007237676
0.001099973
-0.00719402
0.0003960377
-0.007061318
2.030155e-05
-0.006907399
-0.0001516527
-0.006734292
-0.0002382495
-0.006535536
-0.0002938183
-0.006319339
-0.0003304562
-0.006093686
-0.000350974
-0.005857002
-0.0003741494
-0.005609792
-0.0003962414
-0.005357013
-0.0004087699
-0.00509822
-0.0004260302
-0.004741067
-0.0005872636
-0.004482907
-0.0004207201
-0.004216949
-0.0004379956
-0.003952609
-0.0004340471
-0.003682464
-0.0004459369
-0.003406957
-0.0004568765
-0.00313566
-0.0004486878
-0.002854237
-0.0004700962
-0.002577721
-0.0004603148
-0.002310065
-0.0004416047
-0.002039845
-0.0004465758
-0.001774848
-0.0004364049
-0.001506473
-0.0004447997
-0.001241528
-0.0004396261
-0.0009920725
-0.0004073083
-0.0007486629
-0.0003922165
-0.0004845271
-0.0004329654
-0.0001896922
-0.0004926381
6.709273e-05
-0.0004245561
0.0003118478
-0.0004027203
0.0005026208
-0.0003063634
0.0007257122
-0.0003657816
0.000997141
-0.0004540624
0.001298445
-0.0005043051
0.001586881
-0.0004737925
0.001860734
-0.0004441065
0.00210895
-0.0003972003
0.002356642
-0.0004025188
0.002583037
-0.0003655168
0.002810794
-0.0003721709
0.003040164
-0.0003775617
0.003260131
-0.0003580095
0.003476599
-0.0003491878
0.003786989
-0.0005139755
0.004010414
-0.0003642105
0.004224327
-0.0003388287
0.004437288
-0.0003353855
0.004629382
-0.0002920484
0.004806185
-0.0002596776
0.004971741
-0.0002370491
0.005123561
-0.0002090045
0.005242098
-0.0001352018
0.005339377
-7.138329e-05
0.005409018
1.603652e-05
0.005438344
0.0001468616
0.005357699
0.0004549569
0.004995062
0.00107033
0.004054247
0.001984913
0.002432021
0.002556707
0.0003005407
0.002556856
-0.001515444
0.002218831
-0.002294701
0.001651421
-0.002155506
0.0005473958
-0.001548603
-0.0008278183
-0.0008761493
-0.001401536
0.0001028854
-0.002273581
0.001740797
-0.00355728
0.0008096329
0.0005760051
-0.002922054
0.006408992
-0.004573265
0.004218302
-0.003794209
-0.0006306711
-0.00264529
-0.002098895
-0.001528292
-0.001998233
-0.0009125864
-0.001235682
-0.0005940906
-0.0006433458
0.0006245787
-0.002237881
0.0008618529
-0.001073696
0.01615493
-0.002073869
-2.442369e-05
-0.0001264195
-0.003982856
-0.001087022
0.002002718
-0.00165238
0.0013009
-0.0006731639
-0.001591042
-0.0003747935
-0.0005393105
0.0001194976
-0.0008518325
0.001091898
-0.001831978
0.002536297
-0.002693123
0.003664813
-0.00149506
0.003595159
0.0011632
0.002663938
0.001903208
0.002790957
-0.0007162511
0.003796688
-0.002386567
0.004187907
-0.0007158072
0.003266951
0.001804579
2.170601e-05
0.004197749
-0.004781136
0.006846497
-0.00761636
0.005637085
-0.008275035
0.002347054
-0.008198727
0.0005129062
-0.007899494
-0.0003247015
-0.00731432
-0.0009754935
-0.006481519
-0.001417071
-0.005345602
-0.00198879
-0.004065958
-0.00224504
-0.002675271
-0.002449306
-0.0009371231
-0.00313704
0.000570106
-0.002685625
0.00205584
-0.002723573
0.003605933
-0.002947008
0.005225495
-0.002441991
0.005874547
-1.615745e-05
0.004720498
0.002382523
0.002713241
0.002872912
0.001334174
0.001927974
0.001126974
0.0003329695
0.00168716
-0.0007923938
0.002229208
-0.0005864647
0.00242503
-0.00017034
0.002999322
-0.001213695
0.003849948
-0.001781249
0.004345719
-0.001060797
0.004006024
0.0002632675
0.002718743
0.00164047
0.001793803
0.001187135
0.001802142
-1.503288e-05
0.002230132
-0.0005219034
0.003067017
0.000804932
-0.009872712
0.02522271
-0.002439326
0.003219834
-0.001405832
-0.005016349
-0.002019003
0.002615888
-0.002245117
0.001527015
-0.001074545
-0.002761614
-0.0007090261
-0.0009048292
-0.0001717301
-0.001389128
0.0009003227
-0.002904031
0.002552301
-0.004345101
0.003958737
-0.002901496
0.004590596
0.0005313416
0.004204683
0.002289122
0.004160905
-0.0006724734
0.004776742
-0.003002404
0.004846624
-0.0007856891
0.002670934
0.003980268
-0.002886408
0.009755091
-0.008069625
0.01202971
-0.009656459
0.00722392
-0.009895538
0.002586132
-0.009917797
0.0005351656
-0.009582581
-0.0006599174
-0.008847838
-0.001710236
-0.007830433
-0.002434477
-0.00644855
-0.003370674
-0.004888356
-0.003805233
-0.003184412
-0.00415325
-0.001118527
-0.005202925
0.0007027603
-0.004506913
0.002558692
-0.004579505
0.004369087
-0.004757403
0.006131709
-0.004204612
0.007451517
-0.001335966
0.007065012
0.002769028
0.00476772
0.005170204
0.002652583
0.004043111
0.002141244
0.000844308
0.002736387
-0.001387537
0.003368791
-0.001218868
0.00363864
-0.0004401895
0.004291215
-0.001866271
0.005096761
-0.002586795
0.005245856
-0.001209892
0.004144522
0.001364602
0.002417135
0.003367857
0.001930527
0.001673743
0.002411283
-0.000495789
0.002608318
-0.0007189378
0.0008755553
0.00479978
-0.002451835
0.008685506
-0.004257177
0.002852883
-0.004573496
0.0009614723
-0.0041562
-0.0002351699
-0.003598038
-0.001195642
-0.003479848
-0.0007107893
-0.003616608
-0.0002935593
-0.003846697
-0.0002287293
-0.00426011
9.328996e-05
-0.00476408
0.0003938995
-0.005198377
0.0004301693
-0.005371627
-5.624816e-05
-0.005059444
-0.001247831
-0.004210721
-0.00233806
-0.003141617
-0.002112409
-0.003080404
0.0005232283
-0.004911329
0.004047909
-0.007522095
0.00505306
-0.009003198
0.00327587
-0.009309581
0.001995832
-0.009213481
0.001589326
-0.009005114
0.0008916057
-0.0088193
0.0002102234
-0.008645096
-0.0001539021
-0.008445946
-0.0003508032
-0.008218451
-0.0004657446
-0.007965294
-0.0005469746
-0.007693096
-0.0006026541
-0.007410901
-0.0006331695
-0.007117189
-0.0006678609
-0.006811901
-0.0007015297
-0.006501578
-0.0007190935
-0.006186539
-0.0007410686
-0.005753819
-0.001019983
-0.005437714
-0.0007368251
-0.005113236
-0.0007624736
-0.004791408
-0.0007558758
-0.004463498
-0.0007738466
-0.004129089
-0.0007912853
-0.003800465
-0.0007773118
-0.003460434
-0.0008101272
-0.003125989
-0.0007947604
-0.002802109
-0.0007654847
-0.002474801
-0.0007738836
-0.002153287
-0.0007579186
-0.001827643
-0.000770444
-0.001505804
-0.0007614651
-0.001201435
-0.0007116777
-0.0009033013
-0.0006903497
-0.0005813239
-0.0007549429
-0.0002253182
-0.0008486438
8.635637e-05
-0.0007362306
0.0003841106
-0.0007004746
0.000620226
-0.0005424788
0.0008941259
-0.0006396815
0.001222669
-0.0007826056
0.00158483
-0.0008664656
0.001931744
-0.0008207065
0.002262164
-0.0007745267
0.002562899
-0.0006979351
0.002863377
-0.0007029967
0.003137848
-0.0006399886
0.003414433
-0.0006487551
0.003692018
-0.0006551469
0.003959183
-0.0006251745
0.004223851
-0.0006138559
0.004599198
-0.0008893224
0.004870369
-0.0006353813
0.005134106
-0.0006025657
0.005397717
-0.0005989969
0.005637168
-0.000531499
0.005860526
-0.000483036
0.006071175
-0.0004476978
0.006266697
-0.0004045267
0.006423846
-0.0002923504
0.006553924
-0.0002014611
0.006653136
-8.317633e-05
0.006730872
6.91263e-05
0.006780047
0.0004057816
0.006802058
0.001048318
0.006616415
0.002170557
0.005734214
0.003438908
0.003735083
0.004555986
0.001252485
0.004701429
-9.650534e-06
0.002913557
0.0004012267
0.0001365186
0.0009652824
-0.001391874
0.001195533
-0.001631787
0.001080654
-0.002158702
0.001220835
-0.003697461
-0.0009693789
0.002766219
-0.004600779
0.01004039
-0.005364361
0.004981884
-0.004386949
-0.001608084
-0.003109781
-0.003376063
-0.002036665
-0.003071349
-0.001344106
-0.001928241
-0.0008017315
-0.00118572
0.0006068294
-0.003646442
-0.0005876794
0.002056362
-0.001890652
0.002054228
-0.002251695
0.0017068
-0.001831494
-0.00019361
-0.001382004
-0.001026685
-0.0007441707
-0.001567557
2.702366e-05
-0.001899163
0.0008766219
-0.002070089
0.001771911
-0.00220575
0.002798396
-0.002544014
0.003864875
-0.002624188
0.004979741
-0.002720578
0.005997269
-0.002466822
0.006948633
-0.002311141
0.007788889
-0.002018636
0.008406317
-0.001428971
0.008773201
-0.0007705718
0.008841779
4.221413e-05
0.008619352
0.0009268822
0.008165162
0.00175981
0.007539056
0.002908826
0.006239942
0.005614264
0.002532281
0.009571005
-0.00236939
0.008572021
-0.004441925
0.002123169
-0.004003292
-0.001414112
-0.00287545
-0.002799228
-0.001273623
-0.004121996
-0.001234981
-0.000793893
-0.004032991
0.005831818
-0.006501804
0.006979125
-0.005499025
4.769623e-05
-0.002824836
-0.006027803
0.0002956934
-0.008214678
0.002949098
-0.006732739
0.004742762
-0.004533144
0.00547644
-0.001731866
0.005714547
-0.0003939823
0.005688216
0.0002237055
0.005500028
0.0009519316
0.004891108
0.003345544
0.002556109
0.007013909
-0.0002947781
0.005865079
-0.001136869
0.0009831033
-0.0004456797
-0.001916668
0.0006022536
-0.002917467
0.001365254
-0.0017877
0.001901928
-0.0003696268
0.002638443
-0.003849195
-0.0009695901
0.004145063
-0.01036764
0.026259
-0.01119547
0.001926989
-0.01034531
-0.002433235
-0.009992069
-0.0009341322
-0.009632851
-0.0009808363
-0.009364951
-0.0007336159
-0.009116295
-0.0006799109
-0.008907502
-0.0005819613
-0.008533854
-0.0009432826
-0.008379807
-0.0004188971
-0.008239678
-0.0003679093
-0.008106194
-0.0003467225
-0.007982559
-0.0003164066
-0.007860258
-0.0003102903
-0.007743363
-0.0002962635
-0.007627599
-0.0002897015
-0.007519982
-0.0002652683
-0.007413825
-0.0002556361
-0.0073119
-0.000245358
-0.007208646
-0.000246709
-0.007110377
-0.0002330242
-0.0070121
-0.0002301473
-0.006917115
-0.0002195695
-0.006825233
-0.0002077527
-0.006732534
-0.0002104688
-0.006641232
-0.0002082151
-0.006548972
-0.000210619
-0.006459757
-0.0002016464
-0.006371424
-0.0001939869
-0.006286429
-0.0001836542
-0.006197489
-0.0001924103
-0.006111415
-0.0001872293
-0.006021365
-0.0001964236
-0.005935644
-0.0001829673
-0.005848911
-0.0001814141
-0.005761091
-0.0001850765
-0.005672108
-0.0001877136
-0.005581778
-0.0001909171
-0.005492161
-0.0001843255
-0.005400556
-0.0001829203
-0.005427793
9.478907e-05
-0.005345889
-0.0001466078
-0.00526969
-0.0001487471
-0.005190272
-0.0001536423
-0.005113871
-0.0001453683
-0.005033864
-0.0001521841
-0.004955509
-0.000146724
-0.00487531
-0.000147755
-0.004795004
-0.0001471289
-0.004710431
-0.0001583042
-0.004625098
-0.0001600314
-0.004540347
-0.0001547091
-0.004454039
-0.0001540413
-0.004367152
-0.0001520113
-0.004274152
-0.0001672283
-0.004177587
-0.0001771173
-0.004079663
-0.0001772603
-0.003980383
-0.0001773975
-0.003873796
-0.0001927358
-0.003766095
-0.0001925916
-0.003650682
-0.0002082681
-0.003529312
-0.0002210561
-0.003400909
-0.0002335203
-0.003264483
-0.0002507891
-0.003104241
-0.0003124392
-0.002930265
-0.0003503321
-0.002748726
-0.000366402
-0.002532531
-0.0004438412
-0.002268498
-0.0005554443
-0.001906662
-0.0008055144
-0.001240336
-0.001384213
-4.347311e-05
-0.003066571
0.001175773
-0.003134192
0.001825158
-0.001340549
0.002188527
-0.0008210513
0.00246547
-0.0005914746
0.002686888
-0.0004608786
0.002886444
-0.0004109337
0.00306115
-0.000344021
0.00320714
-0.0002683427
0.00333681
-0.0002347786
0.003468622
-0.0002489354
0.003592882
-0.0002341904
0.003711172
-0.0002186347
0.003819057
-0.0001939301
0.0039233
-0.0001870577
0.004021889
-0.0001772027
0.004120623
-0.0001806207
0.00421574
-0.0001725817
0.004306425
-0.0001610484
0.004394195
-0.000156632
0.004482689
-0.0001618405
0.004568391
-0.0001554925
0.004651208
-0.0001500661
0.004735929
-0.0001569623
0.004815456
-0.0001455679
0.004897658
-0.0001563105
0.004980125
-0.0001604616
0.005060966
-0.0001529427
0.005137271
-0.0001409597
0.005215132
-0.000145802
0.005291591
-0.0001474135
0.005373174
-0.0001426136
0.005345101
0.0001019807
0.005434883
-0.0001766565
0.005525027
-0.0001863469
0.005613539
-0.0001856241
0.005701366
-0.0001853638
0.005789656
-0.0001894277
0.005877521
-0.0001865906
0.005961639
-0.0001767693
0.006047934
-0.0001836461
0.006133315
-0.0001870537
0.006223332
-0.0001994114
0.006308292
-0.0001850508
0.006393833
-0.0001839603
0.006478789
-0.0001859586
0.0065665
-0.0001948218
0.006653183
-0.0001943701
0.006743278
-0.000205903
0.006834761
-0.0002107932
0.00692611
-0.0002113084
0.007020684
-0.000218839
0.007110888
-0.0002080268
0.007208993
-0.0002318681
0.007305889
-0.0002330509
0.007406899
-0.0002431951
0.00750911
-0.0002507594
0.007614562
-0.0002594442
0.007723304
-0.0002734627
0.007838527
-0.0002929861
0.007954169
-0.0002959238
0.008075996
-0.0003151137
0.008207311
-0.0003454654
0.008350231
-0.0003907826
0.00870364
-0.0008897151
0.008894898
-0.0005344183
0.009119417
-0.000615169
0.009364543
-0.0006722887
0.009689176
-0.0008799174
0.009992413
-0.0008033211
0.01073559
-0.002101452
0.001968911
0.001241433
4.912816e-05
-0.004424753
0.002057104
-0.002156219
0.0025079
-0.001271848
0.002845534
-0.0009291084
0.003121983
-0.0007373273
0.003371455
-0.0006604062
0.003589132
-0.000561698
0.003773067
-0.0004522772
0.00393709
-0.0003988017
0.004103041
-0.0004148868
0.004259428
-0.0003905775
0.004408881
-0.0003680875
0.004546242
-0.0003312907
0.004678757
-0.0003195727
0.004804464
-0.0003029097
0.004929418
-0.0003055747
0.005050294
-0.0002934578
0.005165052
-0.0002758064
0.005276432
-0.0002680123
0.005387965
-0.0002733733
0.005495941
-0.0002634691
0.005600159
-0.000254284
0.005706629
-0.0002634325
0.00580625
-0.0002451888
0.005909047
-0.0002591073
0.00601208
-0.0002634942
0.006112636
-0.0002534988
0.006208361
-0.0002366853
0.006305409
-0.0002428492
0.006400738
-0.0002427428
0.006503666
-0.0002455422
0.006475608
0.000130039
0.006584876
-0.0002859248
0.006696459
-0.0002979295
0.00680475
-0.0002939147
0.00691218
-0.0002927938
0.007020241
-0.0002974896
0.007127418
-0.0002937669
0.007230261
-0.0002796129
0.007335427
-0.000288812
0.007439448
-0.0002910741
0.007548799
-0.0003087632
0.007652088
-0.0002883396
0.007755991
-0.0002878632
0.007859362
-0.0002893292
0.007965599
-0.0003010593
0.008070507
-0.0002992774
0.008179532
-0.0003149285
0.008289877
-0.0003211385
0.008400088
-0.0003215196
0.00851423
-0.0003329808
0.008622574
-0.0003163704
0.008740968
-0.0003502618
0.008857033
-0.0003491164
0.008977814
-0.0003639758
0.009100343
-0.0003732885
0.009225641
-0.0003847419
0.009355549
-0.0004033712
0.009492275
-0.0004297122
0.009629312
-0.0004329605
0.009773509
-0.0004593112
0.009928992
-0.000500948
0.01030858
-0.0007703689
0.0105179
-0.001099035
0.01074131
-0.0007578268
0.01100695
-0.0008808076
0.01130624
-0.0009715786
0.01169158
-0.001265258
0.01212143
-0.001233172
0.01280786
-0.002787882
0.01220551
0.002571263
-0.01333786
0.01277812
0.002486729
-0.01254205
-0.003229045
-0.01204858
-0.001427607
-0.01162341
-0.001406
-0.01129756
-0.001059468
-0.01100206
-0.0009754099
-0.01075726
-0.0008267607
-0.01052832
-0.001172228
-0.01012977
-0.0008174472
-0.009964428
-0.0005332485
-0.00980627
-0.0005048805
-0.009659869
-0.0004628071
-0.009514863
-0.0004552972
-0.009375956
-0.0004351699
-0.009238322
-0.0004273357
-0.009109692
-0.0003938986
-0.00898303
-0.0003822975
-0.008860968
-0.0003674201
-0.008737242
-0.0003704351
-0.008619217
-0.000351049
-0.00850127
-0.0003480939
-0.008386567
-0.0003342724
-0.008275927
-0.0003183928
-0.008163987
-0.000322409