/*--------------------------------*- C++ -*----------------------------------*\
| =========                 |                                                 |
| \\      /  F ield         | OpenFOAM: The Open Source CFD Toolbox           |
|  \\    /   O peration     | Version:  2406                                  |
|   \\  /    A nd           | Website:  www.openfoam.com                      |
|    \\/     M anipulation  |                                                 |
\*---------------------------------------------------------------------------*/
FoamFile
{
    version     2.0;
    format      ascii;
    arch        "LSB;label=32;scalar=64";
    class       surfaceScalarField;
    location    "0.16";
    object      phi;
}
// * * * * * * * * * * * * * * * * * * * * * * * * * * * * * * * * * * * * * //

dimensions      [0 3 -1 0 0 0 0];

oriented        oriented;

internalField   nonuniform List<scalar> 
7340
(
2.909922e-14
-4.715296e-14
1.805374e-14
2.067297e-14
8.426248e-15
1.935521e-14
1.317761e-15
1.758776e-14
1.767451e-15
1.752428e-14
6.348747e-17
1.6369e-14
1.155274e-15
1.633526e-14
3.374619e-17
1.582175e-14
5.135042e-16
1.506431e-14
7.574406e-16
1.512614e-14
-6.182852e-17
1.477814e-14
3.480033e-16
1.433987e-14
4.382705e-16
1.385027e-14
4.895974e-16
1.463392e-14
-7.836561e-16
1.473571e-14
-1.017834e-16
1.4604e-14
1.317036e-16
1.448677e-14
1.172339e-16
1.479207e-14
-3.052993e-16
1.545364e-14
-6.61573e-16
1.545277e-14
8.692134e-19
1.609035e-14
-6.375733e-16
1.720777e-14
-1.117426e-15
1.690416e-14
3.036082e-16
1.846322e-14
-1.559054e-15
3.22028e-14
-1.373958e-14
3.08744e-15
2.911536e-14
1.46493e-15
1.62251e-15
2.527366e-15
-1.062436e-15
1.630412e-15
8.969545e-16
1.394075e-15
2.363364e-16
1.092142e-15
3.019328e-16
7.686606e-16
3.234819e-16
5.554185e-16
2.132423e-16
6.025789e-16
-4.716038e-17
4.467215e-16
1.558575e-16
3.471012e-16
9.962029e-17
3.017421e-16
4.535926e-17
2.574356e-16
4.430657e-17
1.806168e-16
7.681885e-17
1.522385e-16
2.837833e-17
1.336573e-16
1.858131e-17
1.077452e-16
2.591212e-17
8.764063e-17
2.010464e-17
5.131467e-17
3.632601e-17
2.434297e-17
2.697175e-17
1.806161e-17
6.281408e-18
-9.641714e-18
2.770338e-17
-1.492878e-17
5.287117e-18
-1.541962e-17
4.90897e-19
-1.376412e-17
-1.655447e-18
-1.235292e-17
-1.411148e-18
-1.444533e-17
2.092461e-18
-2.059726e-17
6.151978e-18
-2.724267e-17
6.645464e-18
-4.132347e-17
1.408084e-17
-4.368484e-17
2.361416e-18
-8.594221e-17
4.22574e-17
-1.180815e-16
3.213937e-17
-1.429845e-16
2.490298e-17
-2.078975e-16
6.491303e-17
-2.11066e-16
3.168593e-18
-2.165162e-16
5.450197e-18
-2.45099e-16
2.858279e-17
-3.381187e-16
9.301975e-17
-4.326887e-16
9.457004e-17
-5.643188e-16
1.316301e-16
-7.059376e-16
1.416189e-16
-1.053538e-15
3.476004e-16
-1.264273e-15
2.107345e-16
-1.655782e-15
3.915096e-16
-2.248815e-15
5.930325e-16
-1.897392e-15
-3.514222e-16
-2.409294e-15
5.119012e-16
-3.223861e-14
2.982932e-14
-1.896583e-14
-1.327278e-14
-1.718399e-14
-1.781846e-15
-1.707469e-14
-1.092922e-16
-1.614607e-14
-9.286275e-16
-1.520638e-14
-9.396834e-16
-1.505877e-14
-1.476149e-16
-1.478934e-14
-2.694335e-16
-1.47477e-14
-4.163427e-17
-1.41945e-14
-5.53197e-16
-1.430752e-14
1.130111e-16
-1.44639e-14
1.563829e-16
-1.415946e-14
-3.044347e-16
-1.471508e-14
5.556139e-16
-1.480609e-14
9.100895e-17
-1.511705e-14
3.10961e-16
-1.52878e-14
1.707494e-16
-1.602371e-14
7.359105e-16
-1.651544e-14
4.917277e-16
-1.700778e-14
4.923419e-16
-1.683796e-14
-1.698151e-16
-1.743488e-14
5.969141e-16
-1.974319e-14
2.308315e-15
-2.16245e-14
1.881307e-15
-2.847398e-14
6.849483e-15
-4.662764e-14
1.815365e-14
-2.91901e-14
-1.743753e-14
-2.015229e-14
-9.03781e-15
-1.927898e-14
-8.733116e-16
-1.703798e-14
-2.241007e-15
-1.597018e-14
-1.067796e-15
-1.559302e-14
-3.771631e-16
-1.533351e-14
-2.595026e-16
-1.439305e-14
-9.404688e-16
-1.411315e-14
-2.798934e-16
-1.411713e-14
3.973235e-18
-1.331093e-14
-8.061958e-16
-1.266088e-14
-6.500512e-16
-1.243619e-14
-2.246877e-16
-1.279613e-14
3.599388e-16
-1.23312e-14
-4.64929e-16
-1.174965e-14
-5.815505e-16
-1.168523e-14
-6.441974e-17
-1.147808e-14
-2.071462e-16
-1.132916e-14
-1.48928e-16
-1.153622e-14
2.070676e-16
-1.154991e-14
1.368255e-17
-1.151543e-14
-3.447902e-17
-1.178226e-14
2.668305e-16
-1.148211e-14
-3.001492e-16
-1.14014e-14
-8.071117e-17
-1.130221e-14
-9.918786e-17
-1.127068e-14
-3.152878e-17
-1.151198e-14
2.413013e-16
-1.175421e-14
2.422223e-16
-1.178771e-14
3.350255e-17
-1.197039e-14
1.826784e-16
-1.20497e-14
7.931616e-17
-1.265306e-14
6.033618e-16
-1.388076e-14
1.227699e-15
-1.327404e-16
-1.374802e-14
1.379537e-14
-1.392811e-14
1.256997e-14
1.225397e-15
1.196826e-14
6.017038e-16
1.19003e-14
6.796737e-17
1.171891e-14
1.813864e-16
1.169029e-14
2.862368e-17
1.147407e-14
2.162193e-16
1.124193e-14
2.321331e-16
1.128599e-14
-4.405804e-17
1.140295e-14
-1.169629e-16
1.150693e-14
-1.03978e-16
1.182847e-14
-3.215353e-16
1.15756e-14
2.5287e-16
1.164297e-14
-6.737073e-17
1.165877e-14
-1.580581e-17
1.146844e-14
1.903308e-16
1.164939e-14
-1.809418e-16
1.181686e-14
-1.674759e-16
1.184148e-14
-2.462091e-17
1.238975e-14
-5.482699e-16
1.283334e-14
-4.435922e-16
1.246827e-14
3.650743e-16
1.269852e-14
-2.302488e-16
1.335292e-14
-6.543987e-16
1.415324e-14
-8.003255e-16
1.413634e-14
1.689831e-17
1.439499e-14
-2.586413e-16
1.527719e-14
-8.822033e-16
1.545413e-14
-1.769396e-16
1.578861e-14
-3.344782e-16
1.671251e-14
-9.239062e-16
1.931012e-14
-2.597607e-15
2.078611e-14
-1.475992e-15
2.829736e-14
-7.511249e-15
-1.88556e-14
4.810373e-14
4.456841e-16
-6.247752e-14
4.833075e-14
9.983744e-16
4.602736e-14
2.905094e-15
4.568497e-14
4.103579e-16
4.512036e-14
7.459923e-16
4.493712e-14
2.118702e-16
4.424697e-14
9.06368e-16
4.33088e-14
1.170307e-15
4.342064e-14
-1.559064e-16
4.385468e-14
-5.509978e-16
4.428918e-14
-5.384838e-16
4.541025e-14
-1.442604e-15
4.465155e-14
1.011569e-15
4.471503e-14
-1.308502e-16
4.4953e-14
-2.537707e-16
4.410947e-14
1.033859e-15
4.479392e-14
-8.653961e-16
4.550747e-14
-8.810243e-16
4.563124e-14
-1.483909e-16
4.75984e-14
-2.515427e-15
4.919742e-14
-2.042611e-15
4.813201e-14
1.43048e-15
4.898891e-14
-1.08715e-15
5.141909e-14
-3.084573e-15
5.424918e-14
-3.630422e-15
5.455107e-14
-2.849923e-16
5.558688e-14
-1.294443e-15
5.882244e-14
-4.117763e-15
5.970911e-14
-1.063609e-15
6.103422e-14
-1.659593e-15
6.483965e-14
-4.729336e-15
7.511401e-14
-1.287197e-14
8.091415e-14
-7.276127e-15
1.126305e-13
-3.922761e-14
1.693561e-13
-7.558119e-14
-1.154443e-13
1.668713e-13
-6.886454e-14
-7.911274e-14
-4.536941e-14
-7.498588e-14
-5.000172e-15
-6.757024e-14
-9.656644e-15
-6.185409e-14
-6.783951e-15
-6.021967e-14
-2.011582e-15
-5.903973e-14
-1.439439e-15
-5.55849e-14
-4.395302e-15
-5.446658e-14
-1.398215e-15
-5.411379e-14
-3.488175e-16
-5.12622e-14
-3.657782e-15
-4.884648e-14
-3.065771e-15
-4.800813e-14
-1.063038e-15
-4.905266e-14
1.404468e-15
-4.737249e-14
-2.145095e-15
-4.528164e-14
-2.672408e-15
-4.500293e-14
-3.431211e-16
-4.415742e-14
-1.052662e-15
-4.357636e-14
-7.299913e-16
-4.449385e-14
1.124565e-15
-4.436783e-14
-1.123445e-16
-4.442376e-14
2.145463e-17
-4.523987e-14
1.082944e-15
-4.420014e-14
-1.339882e-15
-4.385384e-14
-4.270118e-16
-4.348699e-14
-4.660343e-16
-4.342077e-14
-9.775234e-17
-4.440243e-14
1.22296e-15
-4.518201e-14
1.021805e-15
-4.538568e-14
2.371747e-16
-4.595801e-14
7.550027e-16
-4.63449e-14
4.662066e-16
-4.865118e-14
2.909641e-15
-4.855804e-14
1.134564e-15
-6.186038e-14
-8.383161e-14
1.091552e-13
-3.859635e-14
-6.721735e-14
-1.839611e-14
-6.683407e-14
-4.925636e-16
-6.29245e-14
-4.838197e-15
-5.934969e-14
-4.514498e-15
-5.824346e-14
-1.25385e-15
-5.736959e-14
-1.143303e-15
-5.698951e-14
-4.217073e-16
-5.506223e-14
-2.480483e-15
-5.524384e-14
2.946216e-16
-5.577815e-14
6.906963e-16
-5.472549e-14
-1.357099e-15
-5.658567e-14
2.415797e-15
-5.720958e-14
7.149214e-16
-5.82861e-14
1.387482e-15
-5.910352e-14
9.881696e-16
-6.165726e-14
3.289649e-15
-6.376144e-14
2.595906e-15
-6.551866e-14
2.249559e-15
-6.526612e-14
-4.223586e-16
-6.770705e-14
3.037847e-15
-7.662076e-14
1.122203e-14
-8.404368e-14
9.304228e-15
-1.129179e-13
3.572368e-14
7.210712e-14
2.886205e-14
-1.093084e-13
1.095617e-13
7.598304e-15
2.288626e-14
1.053477e-14
-3.998904e-15
7.219601e-15
4.212126e-15
5.911831e-15
1.544106e-15
4.627039e-15
1.586725e-15
3.337925e-15
1.612595e-15
2.455694e-15
1.095474e-15
2.457958e-15
-4.942505e-17
1.907244e-15
7.065725e-16
1.476764e-15
5.301004e-16
1.281279e-15
2.408443e-16
1.078599e-15
2.469866e-16
7.876784e-16
3.677393e-16
6.546264e-16
1.614304e-16
5.680868e-16
1.051211e-16
4.611357e-16
1.328634e-16
3.731512e-16
1.080892e-16
2.307564e-16
1.787209e-16
1.252604e-16
1.324679e-16
8.611424e-17
4.542765e-17
-1.488233e-17
1.287001e-16
-4.830754e-17
3.871243e-17
-5.513441e-17
7.317871e-18
-5.640335e-17
-3.864003e-19
-5.588942e-17
-1.924986e-18
-7.092295e-17
1.71261e-17
-9.940356e-17
3.463267e-17
-1.335701e-16
4.081208e-17
-1.888559e-16
6.936674e-17
-2.159523e-16
2.94579e-17
-3.73888e-16
2.001932e-16
-5.083229e-16
1.665744e-16
-6.305887e-16
1.471688e-16
-8.68472e-16
3.027965e-16
-9.088216e-16
4.351817e-17
-9.510341e-16
4.766275e-17
-1.099821e-15
1.773701e-16
-1.465656e-15
4.58854e-16
-1.887493e-15
5.164076e-16
-2.417455e-15
6.615925e-16
-3.12563e-15
8.497932e-16
-4.421165e-15
1.643136e-15
-5.503759e-15
1.293329e-15
-7.137501e-15
2.025252e-15
-9.827807e-15
3.283338e-15
-8.600766e-15
-1.578463e-15
-2.673187e-14
1.8643e-14
1.122526e-13
1.151587e-13
7.225116e-14
8.117996e-14
4.240496e-14
7.68734e-14
5.624323e-15
6.844018e-14
1.020068e-14
6.751326e-14
9.904013e-16
6.350098e-14
5.167554e-15
6.287886e-14
6.558688e-16
6.099875e-14
2.393615e-15
5.82092e-14
3.546989e-15
5.817363e-14
-2.625403e-17
5.704063e-14
1.481003e-15
5.526331e-14
2.215583e-15
5.372496e-14
2.027954e-15
5.645695e-14
-3.515648e-15
5.692279e-14
-5.676261e-16
5.636405e-14
6.904426e-16
5.603571e-14
4.455711e-16
5.741518e-14
-1.684766e-15
5.973725e-14
-2.983645e-15
6.022587e-14
-4.877495e-16
6.27583e-14
-3.170001e-15
6.716781e-14
-5.526932e-15
6.616592e-14
1.305492e-15
8.196742e-14
-1.736055e-14
-4.10806e-14
2.564089e-13
-3.559663e-13
1.718085e-13
1.830183e-13
1.157956e-13
1.70692e-13
1.795064e-14
1.519121e-13
2.898053e-14
1.488198e-13
4.082735e-15
1.403885e-13
1.359884e-14
1.383772e-13
2.667208e-15
1.342844e-13
6.486413e-15
1.283043e-13
9.527074e-15
1.278937e-13
3.843e-16
1.256204e-13
3.754279e-15
1.217588e-13
6.077213e-15
1.188207e-13
4.96606e-15
1.245505e-13
-9.245433e-15
1.255668e-13
-1.583957e-15
1.243215e-13
1.935739e-15
1.238691e-13
8.980434e-16
1.272551e-13
-5.070763e-15
1.32235e-13
-7.96359e-15
1.339909e-13
-2.243683e-15
1.4013e-13
-9.309075e-15
1.496363e-13
-1.503318e-14
1.503026e-13
6.391893e-16
1.905689e-13
-5.762686e-14
2.219358e-13
-7.244756e-14
8.502038e-14
2.464772e-13
2.389331e-14
8.401333e-14
2.490269e-14
-5.008282e-15
1.781638e-14
1.129843e-14
1.417624e-14
5.184247e-15
1.108186e-14
4.681113e-15
8.136033e-15
4.558419e-15
6.025854e-15
3.205653e-15
5.756857e-15
2.195726e-16
4.567275e-15
1.896154e-15
3.55545e-15
1.541925e-15
3.0677e-15
7.285953e-16
2.571912e-15
7.427749e-16
1.922851e-15
1.0168e-15
1.590143e-15
4.941388e-16
1.367158e-15
3.281058e-16
1.113459e-15
3.865625e-16
9.00626e-16
3.209228e-16
5.803089e-16
4.990382e-16
3.40024e-16
3.727529e-16
2.31716e-16
1.537358e-16
1.040558e-17
3.500107e-16
-8.358678e-17
1.32705e-16
-1.132867e-16
3.701801e-17
-1.305082e-16
1.683522e-17
-1.417068e-16
9.273792e-18
-1.884739e-16
6.389335e-17
-2.639362e-16
1.100951e-16
-3.537548e-16
1.306308e-16
-4.850826e-16
2.006946e-16
-5.722048e-16
1.165803e-16
-9.19172e-16
5.471604e-16
-1.238819e-15
4.862218e-16
-1.550358e-15
4.587079e-16
-2.069604e-15
8.220426e-16
-2.200976e-15
1.7489e-16
-2.347448e-15
1.941345e-16
-2.739972e-15
5.698948e-16
-3.585803e-15
1.304685e-15
-4.604741e-15
1.535346e-15
-5.870003e-15
1.926854e-15
-7.668272e-15
2.648063e-15
-1.058188e-14
4.556748e-15
-1.334628e-14
4.057724e-15
-1.748451e-14
6.163486e-15
-2.369577e-14
9.494593e-15
-2.533886e-14
6.4623e-17
-8.081418e-14
7.411833e-14
-2.212236e-13
2.526621e-13
-1.944115e-13
-6.540852e-14
-1.526824e-13
-6.012521e-14
-1.49131e-13
-4.043937e-15
-1.404984e-13
-1.347079e-14
-1.321957e-13
-1.281725e-14
-1.289753e-13
-4.474271e-15
-1.270375e-13
-3.081017e-15
-1.25995e-13
-1.464231e-15
-1.21898e-13
-6.577538e-15
-1.218902e-13
2.868739e-16
-1.22933e-13
1.733488e-15
-1.206727e-13
-3.617449e-15
-1.244242e-13
6.16736e-15
-1.260959e-13
2.386617e-15
-1.284297e-13
3.721234e-15
-1.30318e-13
2.8765e-15
-1.356143e-13
8.585967e-15
-1.404482e-13
7.429792e-15
-1.442987e-13
6.100019e-15
-1.443165e-13
-4.045415e-16
-1.504473e-13
9.168671e-15
-1.735208e-13
3.429551e-14
-1.883717e-13
2.415518e-14
-2.516276e-13
9.89795e-14
-3.502734e-13
1.707529e-13
-2.568056e-13
-1.623323e-13
-1.783411e-13
-1.23834e-13
-1.662473e-13
-1.70939e-14
-1.499589e-13
-2.594507e-14
-1.367041e-13
-2.003872e-14
-1.327286e-13
-5.987118e-15
-1.298693e-13
-4.298788e-15
-1.224874e-13
-1.177712e-14
-1.198872e-13
-3.998478e-15
-1.185713e-13
-1.664726e-15
-1.126159e-13
-9.613126e-15
-1.075635e-13
-8.118185e-15
-1.056779e-13
-2.948664e-15
-1.074557e-13
3.182269e-15
-1.038794e-13
-5.721422e-15
-9.957559e-14
-6.976178e-15
-9.893905e-14
-9.796637e-16
-9.698094e-14
-3.010777e-15
-9.573797e-14
-1.972955e-15
-9.788849e-14
3.275077e-15
-9.742996e-14
-5.708695e-16
-9.774892e-14
3.404116e-16
-9.931227e-14
2.6463e-15
-9.7133e-14
-3.519156e-15
-9.635987e-14
-1.200142e-15
-9.559172e-14
-1.234184e-15
-9.559472e-14
-9.474943e-17
-9.781177e-14
3.440006e-15
-9.936731e-14
2.577348e-15
-9.985402e-14
7.238797e-16
-1.009637e-13
1.864673e-15
-1.019878e-13
1.490356e-15
-1.0594e-13
6.861838e-15
-9.688213e-14
-7.923334e-15
-9.001969e-16
-1.578423e-13
9.574485e-14
-1.591226e-13
1.052008e-13
-8.457552e-15
1.012816e-13
6.824274e-15
1.003553e-13
1.336679e-15
9.926932e-14
1.831948e-15
9.882537e-14
6.558198e-16
9.745355e-14
2.278193e-15
9.534219e-14
3.281665e-15
9.54375e-14
-2.512133e-16
9.634968e-14
-1.463177e-15
9.731407e-14
-1.502879e-15
9.967207e-14
-3.800605e-15
9.82382e-14
2.445444e-15
9.816957e-14
-6.221935e-17
9.88739e-14
-9.581048e-16
9.689481e-14
3.012945e-15
9.834278e-14
-2.313365e-15
1.000369e-13
-2.575106e-15
1.003375e-13
-4.489987e-16
1.043745e-13
-6.552472e-15
1.077756e-13
-5.44371e-15
1.059497e-13
3.256419e-15
1.078709e-13
-3.008388e-15
1.129516e-13
-8.165215e-15
1.188611e-13
-9.539942e-15
1.200639e-13
-1.487767e-15
1.224807e-13
-3.711288e-15
1.293984e-13
-1.103545e-14
1.316359e-13
-3.301169e-15
1.348631e-13
-4.886739e-15
1.470534e-13
-1.691968e-14
1.666068e-13
-3.24253e-14
1.815014e-13
-2.217077e-14
2.514657e-13
-1.091919e-13
-1.800818e-13
1.588141e-13
1.590962e-15
-3.195276e-13
1.912709e-13
-4.09144e-14
1.882292e-13
9.866048e-15
1.864847e-13
3.081123e-15
1.847032e-13
3.6135e-15
1.83964e-13
1.394971e-15
1.815804e-13
4.66178e-15
1.77608e-13
7.254057e-15
1.774581e-13
-1.012389e-16
1.79061e-13
-3.066125e-15
1.808146e-13
-3.256512e-15
1.851523e-13
-8.138239e-15
1.827232e-13
4.874541e-15
1.823846e-13
2.763384e-16
1.838762e-13
-2.449654e-15
1.800674e-13
6.821738e-15
1.826124e-13
-4.858394e-15
1.859991e-13
-5.961803e-15
1.865815e-13
-1.031366e-15
1.935165e-13
-1.348746e-14
1.997427e-13
-1.166993e-14
1.971862e-13
5.812844e-15
2.009352e-13
-6.757299e-15
2.09773e-13
-1.700305e-14
2.203816e-13
-2.014854e-14
2.234538e-13
-4.559973e-15
2.283005e-13
-8.55798e-15
2.409505e-13
-2.368546e-14
2.455372e-13
-7.887839e-15
2.523141e-13
-1.166364e-14
2.770691e-13
-4.167471e-14
3.126185e-13
-6.797474e-14
3.465389e-13
-5.60911e-14
4.698467e-13
-2.324997e-13
6.382749e-13
-3.4851e-13
-4.787013e-13
6.278021e-13
-3.11433e-13
-3.417038e-13
-2.608315e-13
-3.118285e-13
-4.69692e-14
-2.81474e-13
-5.629959e-14
-2.554999e-13
-4.60128e-14
-2.475301e-13
-1.395695e-14
-2.418038e-13
-1.002511e-14
-2.283347e-13
-2.524614e-14
-2.231435e-13
-9.189747e-15
-2.198596e-13
-4.948558e-15
-2.091674e-13
-2.03054e-14
-2.00376e-13
-1.690959e-14
-1.966837e-13
-6.640944e-15
-1.991465e-13
5.645071e-15
-1.926023e-13
-1.226557e-14
-1.851778e-13
-1.440069e-14
-1.839888e-13
-2.168651e-15
-1.801439e-13
-6.855696e-15
-1.779568e-13
-4.160068e-15
-1.820916e-13
7.409828e-15
-1.8106e-13
-1.602433e-15
-1.81842e-13
1.122439e-15
-1.845133e-13
5.31763e-15
-1.805102e-13
-7.52232e-15
-1.791069e-13
-2.603477e-15
-1.777628e-13
-2.578227e-15
-1.780952e-13
2.376547e-16
-1.822768e-13
7.621577e-15
-1.84985e-13
5.285548e-15
-1.857931e-13
1.532029e-15
-1.876353e-13
3.706836e-15
-1.895632e-13
3.418219e-15
-1.927578e-13
1.005651e-14
-1.610576e-13
-3.96236e-14
-3.173089e-13
-3.668096e-13
3.90825e-13
-8.94239e-14
-2.968997e-13
-1.300351e-13
-2.820674e-13
-1.887625e-14
-2.664665e-13
-2.907172e-14
-2.495126e-13
-2.977114e-14
-2.422004e-13
-1.178649e-14
-2.381552e-13
-7.126147e-15
-2.360762e-13
-3.543321e-15
-2.284252e-13
-1.422849e-14
-2.277011e-13
-4.372678e-16
-2.293876e-13
3.420016e-15
-2.250727e-13
-7.932356e-15
-2.316442e-13
1.273886e-14
-2.350702e-13
5.812579e-15
-2.395896e-13
8.240703e-15
-2.430118e-13
6.298702e-15
-2.525044e-13
1.807852e-14
-2.616807e-13
1.660611e-14
-2.691387e-13
1.3558e-14
-2.700477e-13
5.045335e-16
-2.833297e-13
2.245063e-14
-3.260257e-13
7.699147e-14
-3.590894e-13
5.721887e-14
-4.694167e-13
2.093068e-13
3.291383e-13
1.844774e-13
-3.925988e-13
4.545986e-13
6.391477e-14
2.045759e-13
5.105901e-14
7.847478e-15
3.753123e-14
2.482621e-14
2.911793e-14
1.359754e-14
2.267752e-14
1.112153e-14
1.690228e-14
1.033365e-14
1.255514e-14
7.552799e-15
1.157476e-14
1.199953e-15
9.290585e-15
4.180327e-15
7.29967e-15
3.53284e-15
6.253139e-15
1.775127e-15
5.238751e-15
1.757163e-15
3.984348e-15
2.271203e-15
3.290717e-15
1.18777e-15
2.804365e-15
8.144579e-16
2.287897e-15
9.030307e-16
1.853672e-15
7.551486e-16
1.238421e-15
1.11429e-15
7.679264e-16
8.432475e-16
5.303961e-16
3.912664e-16
1.064677e-16
7.739393e-16
-1.041046e-16
3.432775e-16
-1.950755e-16
1.279892e-16
-2.559451e-16
7.770509e-17
-3.049965e-16
5.832542e-17
-4.202605e-16
1.791577e-16
-5.912636e-16
2.810984e-16
-7.860358e-16
3.254034e-16
-1.060209e-15
4.748683e-16
-1.268078e-15
3.244497e-16
-1.925989e-15
1.205071e-15
-2.575012e-15
1.135245e-15
-3.231439e-15
1.115135e-15
-4.218292e-15
1.808896e-15
-4.537847e-15
4.94445e-16
-4.936812e-15
5.931005e-16
-5.790722e-15
1.423805e-15
-7.488314e-15
3.002277e-15
-9.558514e-15
3.605546e-15
-1.219873e-14
4.567072e-15
-1.596319e-14
6.412519e-15
-2.17319e-14
1.032546e-14
-2.757403e-14
9.899863e-15
-3.685302e-14
1.544248e-14
-4.905235e-14
2.169392e-14
-6.570876e-14
1.672103e-14
-1.772554e-13
1.85665e-13
4.662317e-13
4.781301e-13
3.319533e-13
3.503566e-13
2.435691e-13
3.204819e-13
4.782537e-14
2.852187e-13
6.424371e-14
2.779817e-13
1.131975e-14
2.624837e-13
2.909679e-14
2.578557e-13
7.29523e-15
2.501406e-13
1.420148e-14
2.391761e-13
2.04916e-14
2.380138e-13
1.54663e-15
2.340121e-13
7.755983e-15
2.271701e-13
1.291915e-14
2.222989e-13
9.837294e-15
2.327399e-13
-1.968648e-14
2.34427e-13
-3.271036e-15
2.321626e-13
4.200154e-15
2.318844e-13
1.176252e-15
2.388521e-13
-1.203843e-14
2.482574e-13
-1.736888e-14
2.526014e-13
-6.587706e-15
2.656376e-13
-2.234533e-14
2.827068e-13
-3.210231e-14
2.922502e-13
-8.90429e-15
3.603189e-13
-1.256956e-13
-1.047274e-13
8.187523e-13
-1.055895e-12
5.690959e-13
6.194919e-13
4.428295e-13
5.560993e-13
1.112179e-13
4.945965e-13
1.257465e-13
4.798423e-13
2.607392e-14
4.531276e-13
5.581148e-14
4.437364e-13
1.668642e-14
4.301445e-13
2.77934e-14
4.114568e-13
3.917934e-14
4.089231e-13
4.080282e-15
4.024413e-13
1.423784e-14
3.914351e-13
2.392528e-14
3.840723e-13
1.720018e-14
4.017832e-13
-3.739746e-14
4.042069e-13
-5.694676e-15
4.004512e-13
7.955857e-15
4.010915e-13
5.359007e-16
4.144808e-13
-2.542769e-14
4.311923e-13
-3.408042e-14
4.40778e-13
-1.617333e-14
4.662973e-13
-4.786467e-14
4.955652e-13
-6.137024e-14
5.242324e-13
-3.757149e-14
6.169992e-13
-2.184624e-13
6.438406e-13
-1.315688e-13
3.503959e-13
7.480434e-13
1.488149e-13
4.061569e-13
1.006497e-13
5.601262e-14
7.386178e-14
5.161414e-14
5.611207e-14
3.134725e-14
4.336141e-14
2.387219e-14
3.27281e-14
2.096697e-14
2.438224e-14
1.589866e-14
2.177992e-14
3.802272e-15
1.759865e-14
8.3616e-15
1.395584e-14
7.175648e-15
1.187781e-14
3.853159e-15
9.948737e-15
3.686235e-15
7.673168e-15
4.546772e-15
6.33823e-15
2.52271e-15
5.357362e-15
1.795326e-15
4.375405e-15
1.884989e-15
3.553598e-15
1.576956e-15
2.45061e-15
2.217278e-15
1.59153e-15
1.702328e-15
1.119175e-15
8.636219e-16
3.558563e-16
1.537259e-15
-7.403318e-17
7.731675e-16
-3.042221e-16
3.581785e-16
-4.660683e-16
2.395517e-16
-6.080727e-16
2.003302e-16
-8.632553e-16
4.343407e-16
-1.221688e-15
6.39531e-16
-1.610077e-15
7.137935e-16
-2.148153e-15
1.012944e-15
-2.586829e-15
7.631261e-16
-3.75442e-15
2.372663e-15
-4.984103e-15
2.364928e-15
-6.259889e-15
2.390921e-15
-8.022351e-15
3.571359e-15
-8.719086e-15
1.19118e-15
-9.665806e-15
1.539821e-15
-1.137469e-14
3.132691e-15
-1.457295e-14
6.200533e-15
-1.849955e-14
7.532148e-15
-2.367308e-14
9.740598e-15
-3.097356e-14
1.3713e-14
-4.175166e-14
2.110356e-14
-5.339797e-14
2.154617e-14
-7.272107e-14
3.476557e-14
-9.737878e-14
4.635163e-14
-1.506831e-13
7.002534e-14
-3.38955e-13
3.739369e-13
-6.403713e-13
7.67648e-13
-6.266965e-13
-1.030987e-13
-5.32708e-13
-2.240236e-13
-4.949156e-13
-5.666868e-14
-4.681494e-13
-5.583788e-14
-4.359743e-13
-6.194627e-14
-4.207105e-13
-2.70503e-14
-4.126222e-13
-1.521442e-14
-4.089056e-13
-7.259872e-15
-3.955275e-13
-2.760667e-14
-3.928886e-13
-3.076111e-15
-3.953198e-13
5.851188e-15
-3.874987e-13
-1.575342e-14
-3.982203e-13
2.346046e-14
-4.045219e-13
1.211412e-14
-4.127298e-13
1.644862e-14
-4.182804e-13
1.18493e-14
-4.340468e-13
3.384495e-14
-4.500482e-13
3.26075e-14
-4.637018e-13
2.721161e-14
-4.667297e-13
3.532381e-15
-4.928781e-13
4.859904e-14
-5.656358e-13
1.497492e-13
-6.321806e-13
1.237637e-13
-8.040996e-13
3.812258e-13
-1.038713e-12
5.637512e-13
-8.19646e-13
-5.304996e-13
-6.048952e-13
-4.755823e-13
-5.407557e-13
-1.111087e-13
-4.879566e-13
-1.090987e-13
-4.408835e-13
-9.308589e-14
-4.261909e-13
-2.864955e-14
-4.156844e-13
-2.05316e-14
-3.928868e-13
-4.804371e-14
-3.832284e-13
-1.884819e-14
-3.762079e-13
-1.196904e-14
-3.58355e-13
-3.815831e-14
-3.444557e-13
-3.080887e-14
-3.377444e-13
-1.335226e-14
-3.404951e-13
8.395776e-15
-3.293685e-13
-2.339221e-14
-3.177301e-13
-2.603905e-14
-3.157099e-13
-4.18887e-15
-3.087278e-13
-1.383774e-14
-3.052587e-13
-7.629193e-15
-3.125214e-13
1.467248e-14
-3.104949e-13
-3.628877e-15
-3.121181e-13
2.74557e-15
-3.163992e-13
9.598758e-15
-3.094946e-13
-1.44269e-14
-3.071586e-13
-4.939467e-15
-3.050604e-13
-4.676465e-15
-3.062728e-13
1.450056e-15
-3.135456e-13
1.489442e-14
-3.178673e-13
9.607196e-15
-3.188773e-13
2.542042e-15
-3.215454e-13
6.374915e-15
-3.238037e-13
5.676531e-15
-3.187496e-13
5.002405e-15
-2.419886e-13
-1.163846e-13
-2.608958e-15
-5.566886e-13
2.380237e-13
-5.601602e-13
3.159788e-13
-1.188695e-13
3.21452e-13
4.392797e-15
3.195308e-13
5.002347e-15
3.170004e-13
6.143869e-15
3.160857e-13
2.30972e-15
3.122936e-13
8.453809e-15
3.053984e-13
1.414925e-14
3.045002e-13
7.970308e-16
3.070246e-13
-5.590519e-15
3.099514e-13
-6.183336e-15
3.174357e-13
-1.56225e-14
3.135684e-13
8.741771e-15
3.126653e-13
1.179463e-15
3.154887e-13
-5.273024e-15
3.087973e-13
1.351314e-14
3.128519e-13
-8.913065e-15
3.190926e-13
-1.220244e-14
3.201096e-13
-2.048415e-15
3.309183e-13
-2.429615e-14
3.415159e-13
-2.226748e-14
3.385983e-13
8.730402e-15
3.4539e-13
-1.354899e-14
3.593584e-13
-3.097141e-14
3.770699e-13
-3.786008e-14
3.83725e-13
-1.121503e-14
3.927897e-13
-1.762271e-14
4.142686e-13
-4.516441e-14
4.228281e-13
-1.644728e-14
4.357185e-13
-2.455406e-14
4.819236e-13
-8.787981e-14
5.419922e-13
-1.280434e-13
6.116299e-13
-1.257288e-13
8.06092e-13
-4.269618e-13
-5.983128e-13
3.321071e-13
4.066207e-15
-8.963335e-13
4.887536e-13
-2.75516e-13
5.202271e-13
-2.708066e-14
5.21667e-13
3.562428e-15
5.189937e-13
8.817105e-15
5.185062e-13
2.797291e-15
5.130421e-13
1.391788e-14
5.015283e-13
2.566301e-14
4.988442e-13
3.481214e-15
5.024138e-13
-9.160147e-15
5.07097e-13
-1.086658e-14
5.196602e-13
-2.818571e-14
5.137751e-13
1.462688e-14
5.116133e-13
3.341295e-15
5.167313e-13
-1.039106e-14
5.05567e-13
2.467748e-14
5.115735e-13
-1.491961e-14
5.22572e-13
-2.320088e-14
5.242359e-13
-3.712359e-15
5.399276e-13
-3.998784e-14
5.57244e-13
-3.95839e-14
5.550559e-13
1.09185e-14
5.667798e-13
-2.527288e-14
5.874555e-13
-5.164711e-14
6.159044e-13
-6.630895e-14
6.290632e-13
-2.43739e-14
6.454445e-13
-3.400396e-14
6.804666e-13
-8.018655e-14
6.955474e-13
-3.152806e-14
7.188935e-13
-4.79001e-14
8.011827e-13
-1.701691e-13
8.990806e-13
-2.259412e-13
1.030286e-12
-2.569346e-13
1.315335e-12
-7.120107e-13
1.662485e-12
-9.454626e-13
-1.334947e-12
1.636468e-12
-8.320209e-13
-1.02165e-12
-7.888786e-13
-8.975927e-13
-2.351663e-13
-8.085893e-13
-1.98102e-13
-7.268837e-13
-1.747915e-13
-7.009796e-13
-5.455371e-14
-6.826928e-13
-3.881833e-14
-6.456662e-13
-8.50704e-14
-6.283201e-13
-3.61943e-14
-6.145557e-13
-2.573344e-14
-5.858786e-13
-6.683535e-14
-5.652987e-13
-5.138878e-14
-5.53679e-13
-2.497197e-14
-5.555865e-13
1.03033e-14
-5.374347e-13
-4.154397e-14
-5.204026e-13
-4.307118e-14
-5.171615e-13
-7.429949e-15
-5.050075e-13
-2.59918e-14
-4.999227e-13
-1.271393e-14
-5.120536e-13
2.680336e-14
-5.082568e-13
-7.425669e-15
-5.115225e-13
6.011202e-15
-5.180768e-13
1.615306e-14
-5.064763e-13
-2.602738e-14
-5.027424e-13
-8.673312e-15
-4.998363e-13
-7.582593e-15
-5.030376e-13
4.65138e-15
-5.151992e-13
2.7056e-14
-5.214842e-13
1.589216e-14
-5.220837e-13
3.141564e-15
-5.250511e-13
9.342302e-15
-5.242381e-13
4.86353e-15
-4.936486e-13
-2.558704e-14
-3.386645e-13
-2.713687e-13
-8.912869e-13
-1.007884e-12
9.991061e-13
-9.432042e-14
-9.073893e-13
-3.245187e-13
-8.334615e-13
-1.305965e-13
-7.88557e-13
-1.007424e-13
-7.30507e-13
-1.199963e-13
-6.995172e-13
-5.804013e-14
-6.838544e-13
-3.087716e-14
-6.774802e-13
-1.363411e-14
-6.551471e-13
-4.993982e-14
-6.478137e-13
-1.040942e-14
-6.510539e-13
9.091316e-15
-6.372293e-13
-2.957803e-14
-6.540131e-13
4.024433e-14
-6.649877e-13
2.308872e-14
-6.792313e-13
3.069213e-14
-6.876954e-13
2.031342e-14
-7.126033e-13
5.875286e-14
-7.393226e-13
5.932681e-14
-7.636269e-13
5.151595e-14
-7.709929e-13
1.089829e-14
-8.196635e-13
9.726966e-14
-9.385732e-13
2.686589e-13
-1.061734e-12
2.469241e-13
-1.310088e-12
6.295801e-13
8.901312e-13
6.152704e-13
-1.00453e-12
1.137303e-12
3.126635e-13
7.087638e-13
1.961789e-13
1.724972e-13
1.409594e-13
1.068336e-13
1.051544e-13
6.715225e-14
8.024564e-14
4.878095e-14
6.114815e-14
4.006446e-14
4.575615e-14
3.129066e-14
3.968613e-14
9.872291e-15
3.218543e-14
1.586231e-14
2.571214e-14
1.364894e-14
2.177429e-14
7.791006e-15
1.822852e-14
7.232011e-15
1.422083e-14
8.554461e-15
1.175808e-14
4.985454e-15
9.865131e-15
3.68828e-15
8.062526e-15
3.687594e-15
6.56667e-15
3.072812e-15
4.652351e-15
4.131597e-15
3.140607e-15
3.214072e-15
2.249543e-15
1.754687e-15
9.181394e-16
2.868663e-15
8.051943e-17
1.610788e-15
-4.407428e-16
8.794415e-16
-8.165941e-16
6.154037e-16
-1.161535e-15
5.452716e-16
-1.692512e-15
9.65319e-16
-2.411145e-15
1.358164e-15
-3.150658e-15
1.453307e-15
-4.171523e-15
2.033809e-15
-5.036115e-15
1.627719e-15
-7.042275e-15
4.378823e-15
-9.293805e-15
4.616458e-15
-1.167892e-14
4.776036e-15
-1.47291e-14
6.621545e-15
-1.616429e-14
2.62637e-15
-1.822696e-14
3.602486e-15
-2.150074e-14
6.406475e-15
-2.734343e-14
1.204322e-14
-3.45775e-14
1.476623e-14
-4.438788e-14
1.955097e-14
-5.809644e-14
2.742157e-14
-7.76621e-14
4.066922e-14
-1.006029e-13
4.448702e-14
-1.392082e-13
7.337084e-14
-1.910727e-13
9.82161e-14
-3.142524e-13
1.93205e-13
-5.980231e-13
6.577077e-13
1.168731e-12
1.333647e-12
8.97934e-13
1.045162e-12
7.313143e-13
9.231954e-13
2.331846e-13
8.197582e-13
2.291838e-13
7.919845e-13
5.384759e-14
7.475208e-13
1.002752e-13
7.295908e-13
3.461634e-14
7.0655e-13
5.083422e-14
6.758519e-13
6.98775e-14
6.709572e-13
8.974912e-15
6.612388e-13
2.395625e-14
6.44459e-13
4.070511e-14
6.34276e-13
2.738322e-14
6.629971e-13
-6.611862e-14
6.660674e-13
-8.764935e-15
6.601209e-13
1.390232e-14
6.633736e-13
-2.716805e-15
6.885156e-13
-5.05697e-14
7.171439e-13
-6.270866e-14
7.372951e-13
-3.632462e-14
7.845139e-13
-9.508347e-14
8.338982e-13
-1.107545e-13
8.922316e-13
-9.590486e-14
9.950745e-13
-3.213053e-13
-1.410241e-13
2.1031e-12
-2.529661e-12
1.324495e-12
1.708319e-12
1.126096e-12
1.491792e-12
4.497113e-13
1.320487e-12
4.004891e-13
1.272438e-12
1.018963e-13
1.19845e-12
1.74263e-13
1.165513e-12
6.755335e-14
1.128422e-12
8.792564e-14
1.077764e-12
1.205354e-13
1.06914e-12
1.759852e-14
1.055724e-12
3.737195e-14
1.031855e-12
6.45743e-14
1.018003e-12
4.123525e-14
1.06449e-12
-1.126056e-13
1.066911e-12
-1.11862e-14
1.057732e-12
2.308216e-14
1.067225e-12
-1.221001e-14
1.113943e-12
-9.728747e-14
1.163099e-12
-1.11865e-13
1.202509e-12
-7.573426e-14
1.2884e-12
-1.809745e-13
1.367739e-12
-1.900941e-13
1.459809e-12
-1.879748e-13
1.543115e-12
-4.046115e-13
1.509704e-12
-1.076129e-13
1.027278e-12
1.619729e-12
6.061888e-13
1.129853e-12
3.790524e-13
3.996336e-13
2.662135e-13
2.196725e-13
1.951057e-13
1.3826e-13
1.463437e-13
9.754299e-14
1.123569e-13
7.405129e-14
8.433742e-14
5.931011e-14
7.130166e-14
2.290805e-14
5.783184e-14
2.933213e-14
4.643478e-14
2.504601e-14
3.920411e-14
1.502167e-14
3.278717e-14
1.364896e-14
2.580316e-14
1.553847e-14
2.137281e-14
9.415813e-15
1.781093e-14
7.250161e-15
1.456011e-14
6.938413e-15
1.189944e-14
5.733481e-15
8.618848e-15
7.412194e-15
6.002574e-15
5.830349e-15
4.39037e-15
3.366892e-15
2.094044e-15
5.16499e-15
5.044124e-16
3.200421e-15
-5.955813e-16
1.979436e-15
-1.403634e-15
1.423458e-15
-2.158423e-15
1.300062e-15
-3.224496e-15
2.031393e-15
-4.621676e-15
2.755345e-15
-6.002116e-15
2.83375e-15
-7.894263e-15
3.925957e-15
-9.521148e-15
3.254607e-15
-1.292561e-14
7.783286e-15
-1.697312e-14
8.66397e-15
-2.13471e-14
9.150018e-15
-2.658465e-14
1.18591e-14
-2.940496e-14
5.446679e-15
-3.366373e-14
7.861257e-15
-3.976977e-14
1.251252e-14
-5.032104e-14
2.259449e-14
-6.351292e-14
2.79581e-14
-8.180231e-14
3.784037e-14
-1.071533e-13
5.277259e-14
-1.424704e-13
7.598625e-14
-1.87587e-13
8.960369e-14
-2.635554e-13
1.493392e-13
-3.708887e-13
2.055493e-13
-6.080499e-13
4.303663e-13
-1.002696e-12
1.052353e-12
-1.504151e-12
1.670186e-12
-1.558668e-12