/*--------------------------------*- C++ -*----------------------------------*\
| =========                 |                                                 |
| \\      /  F ield         | OpenFOAM: The Open Source CFD Toolbox           |
|  \\    /   O peration     | Version:  2406                                  |
|   \\  /    A nd           | Website:  www.openfoam.com                      |
|    \\/     M anipulation  |                                                 |
\*---------------------------------------------------------------------------*/
FoamFile
{
    version     2.0;
    format      ascii;
    arch        "LSB;label=32;scalar=64";
    class       volScalarField;
    location    "1.92";
    object      p;
}
// * * * * * * * * * * * * * * * * * * * * * * * * * * * * * * * * * * * * * //

dimensions      [0 2 -2 0 0 0 0];

internalField   nonuniform List<scalar> 
15536
(
-28.56635
-19.53518
-12.60695
-7.703197
-5.369741
-4.844484
-5.04701
-4.76042
-3.680812
-1.738961
0.2861291
-1.734722
-6.864284
-10.6422
-11.19204
-11.02296
-12.23754
-15.74617
-21.26679
-27.25046
-26.1761
-15.55155
-1.232291
6.648587
7.837551
1.079225
-9.092734
-18.1121
-35.64397
-74.65669
-125.388
-134.4442
-81.82438
-42.53411
-61.2615
-84.58014
-93.98142
-90.7744
-89.04822
-93.97093
-99.25879
-103.1068
-105.1097
-105.7396
-105.6063
-104.5232
-102.5851
-99.69792
-96.35015
-92.67842
-88.3371
-83.42797
-77.91008
-72.03405
-65.74595
-59.11598
-52.47714
-45.74684
-38.68757
-31.47919
-24.40623
-17.48209
-10.60259
-3.8232
2.723511
9.127133
15.22334
20.98952
26.32288
31.2213
35.64728
39.60313
43.05442
45.92753
48.18007
49.91662
51.01079
51.50374
51.44098
50.90387
49.5918
47.6158
45.06004
41.92029
38.21807
33.97383
29.25709
23.98227
18.31327
12.29377
5.772615
-1.059558
-8.134535
-15.63939
-23.29498
-30.88922
-38.64971
-46.55948
-54.42487
-62.33048
-70.11429
-77.58548
-84.69963
-91.54738
-98.25212
-104.4972
-110.26
-115.4926
-120.2108
-124.4805
-128.0158
-130.7273
-132.6621
-133.784
-133.9238
-132.6714
-129.6584
-124.6974
-119.5103
-117.1849
-125.37
-145.949
-143.7843
-115.011
-87.1951
-63.81637
-41.84825
-69.3537
-147.87
-167.7198
-129.9786
-84.3646
-57.45415
-44.25954
-34.30284
-22.62639
-12.63556
-11.21182
-13.09086
-15.9702
-24.71333
-32.87368
-39.30719
-42.82222
-44.26593
-47.96981
-56.83666
-59.84338
-51.28826
-48.75741
-53.07549
-56.9525
-59.78902
-59.45168
-55.41026
-48.10025
-38.7449
-28.45892
-19.48915
-12.60073
-7.708866
-5.379934
-4.845861
-5.03642
-4.753419
-3.677257
-1.72959
0.301345
-1.719061
-6.862818
-10.64676
-11.17684
-10.99784
-12.26176
-15.78886
-21.29991
-27.2454
-26.1744
-15.55864
-1.233094
6.695871
7.788481
0.9937059
-9.132957
-18.05589
-35.52903
-74.51926
-125.2933
-134.6183
-81.76117
-42.40465
-61.33739
-84.83882
-94.01537
-90.78784
-88.89199
-93.42791
-98.38146
-101.9428
-103.7909
-104.3378
-104.1654
-103.0643
-101.1248
-98.24599
-94.91377
-91.27414
-86.96872
-82.10351
-76.63237
-70.80975
-64.58259
-58.0153
-51.43987
-44.77788
-37.79197
-30.65305
-23.65009
-16.79672
-9.986854
-3.27294
3.209634
9.54765
15.58015
21.2881
26.56814
31.41643
35.79771
39.71424
43.13117
45.97754
48.20762
49.92796
51.01238
51.5012
51.43803
50.90333
49.59996
47.64189
45.10971
41.99891
38.33139
34.12786
29.45662
24.23291
18.62199
12.6605
6.202758
-0.5583852
-7.565414
-15.00342
-22.58136
-30.09926
-37.78538
-45.61711
-53.40501
-61.2345
-68.94403
-76.34161
-83.38608
-90.17333
-96.82279
-103.0121
-108.7273
-113.9161
-118.5985
-122.8433
-126.36
-129.0676
-131.0155
-132.1699
-132.3711
-131.2537
-128.5267
-123.9442
-119.1727
-117.1292
-125.2147
-145.8886
-143.8932
-115.0723
-87.35799
-63.98581
-41.85079
-69.47041
-148.1602
-167.7281
-129.7051
-84.10955
-57.27046
-44.16931
-34.32459
-22.70202
-12.67025
-11.17339
-13.02956
-15.94152
-24.7225
-32.87237
-39.2791
-42.82273
-44.29856
-48.01097
-56.89238
-59.85789
-51.23885
-48.74088
-53.03288
-56.84417
-59.58907
-59.14288
-55.08043
-47.82721
-38.55724
-28.39778
-19.46711
-12.6127
-7.728544
-5.40723
-4.864152
-5.046431
-4.763053
-3.672504
-1.698269
0.3408052
-1.690305
-6.856082
-10.63077
-11.175
-11.0336
-12.34732
-15.89263
-21.39911
-27.34
-26.29042
-15.76611
-1.426185
6.715998
7.748735
0.8719939
-9.185289
-17.99967
-35.47302
-74.69367
-125.9286
-135.7363
-82.05028
-42.02003
-60.9186
-84.41431
-93.38209
-90.35338
-88.61166
-92.78735
-97.44028
-100.9284
-102.846
-103.437
-103.3
-102.2254
-100.3201
-97.45807
-94.13917
-90.52829
-86.23664
-81.39826
-75.95093
-70.1625
-63.97454
-57.42387
-50.87745
-44.25775
-37.29898
-30.19115
-23.22098
-16.40705
-9.635469
-2.951866
3.489708
9.798635
15.79705
21.47358
26.7238
31.54413
35.89754
39.789
43.18327
46.01295
48.22413
49.93236
51.00885
51.49337
51.42994
50.89755
49.60115
47.65802
45.14289
42.052
38.40817
34.23051
29.58886
24.39097
18.81314
12.88625
6.458271
-0.2656044
-7.233141
-14.63759
-22.17751
-29.65114
-37.3025
-45.10014
-52.84316
-60.64862
-68.32295
-75.6906
-82.70668
-89.44879
-96.06719
-102.2222
-107.9144
-113.0788
-117.7387
-121.9664
-125.459
-128.1388
-130.0545
-131.1816
-131.3498
-130.154
-127.4388
-123.1367
-118.7682
-117.0326
-125.5224
-145.9512
-144.014
-115.1742
-87.36378
-63.85884
-41.49135
-70.15516
-150.074
-168.7264
-129.8743
-83.95465
-57.09611
-44.10081
-34.41744
-22.89567
-12.80691
-11.16971
-13.00425
-16.01023
-24.82821
-32.92128
-39.31965
-42.85884
-44.36776
-48.10298
-57.03141
-59.97547
-51.23641
-48.70664
-53.05607
-56.87193
-59.48334
-59.04864
-54.96352
-47.68963
-38.4527
-28.35534
-19.46388
-12.64965
-7.773571
-5.459422
-4.903183
-5.069858
-4.784014
-3.679389
-1.673335
0.3857837
-1.666437
-6.874317
-10.66875
-11.18337
-11.11298
-12.5023
-16.08114
-21.60036
-27.56929
-26.53292
-16.14988
-1.845903
6.826845
7.884806
0.8231157
-9.174841
-17.95169
-35.46682
-75.0866
-126.803
-137.3399
-83.01288
-42.30613
-60.11247
-82.65338
-91.24678
-89.17921
-88.075
-91.87042
-96.11835
-99.38184
-101.1271
-101.5731
-101.4163
-100.3297
-98.46558
-95.63527
-92.34195
-88.78766
-84.57068
-79.81116
-74.43851
-68.72603
-62.62436
-56.16012
-49.69369
-43.16464
-36.30742
-29.27875
-22.38915
-15.66221
-8.976133
-2.366556
3.992835
10.23173
16.16045
21.77753
26.96859
31.73425
36.03978
39.89065
43.24922
46.05411
48.23805
49.93088
50.99793
51.47756
51.41418
50.88345
49.59322
47.67099
45.17991
42.11783
38.5104
34.37581
29.78607
24.63653
19.12459
13.26287
6.898207
0.2587181
-6.630515
-13.96659
-21.40835
-28.78897
-36.35817
-44.0577
-51.70371
-59.41735
-66.9974
-74.26165
-81.17566
-87.84097
-94.38205
-100.4449
-106.0614
-111.1438
-115.743
-119.933
-123.3769
-126.0159
-127.9226
-129.0696
-129.304
-128.3118
-125.8581
-121.9707
-118.1689
-116.9231
-125.3633
-144.2337
-142.2202
-114.3702
-86.84313
-63.22598
-41.00348
-71.78299
-153.3337
-170.1755
-130.4411
-83.86646
-56.90619
-44.01868
-34.53967
-23.16812
-13.02884
-11.12689
-13.0047
-16.20769
-24.99213
-32.98582
-39.35761
-42.92141
-44.46417
-48.24253
-57.27011
-60.19669
-51.38733
-48.79193
-53.21294
-56.93942
-59.32938
-58.71232
-54.71968
-47.50724
-38.3509
-28.34678
-19.4834
-12.7224
-7.856743
-5.549007
-4.973266
-5.119962
-4.827614
-3.712214
-1.68727
0.3909122
-1.706683
-6.992043
-10.79216
-11.2732
-11.27477
-12.76018
-16.39003
-21.95995
-28.02008
-26.99334
-16.6761
-2.39428
7.133162
8.31666
0.9712477
-9.069874
-17.92501
-35.60984
-75.64546
-127.7617
-138.8482
-84.84834
-44.23871
-60.09502
-80.63737
-88.59722
-87.67908
-87.35426
-90.88103
-94.81972
-97.96436
-99.74366
-100.2351
-100.099
-98.99736
-97.15878
-94.32873
-91.00166
-87.50505
-83.28335
-78.56238
-73.20458
-67.54025
-61.50367
-55.06449
-48.64893
-42.20402
-35.41123
-28.43078
-21.60509
-14.96049
-8.34755
-1.792052
4.486871
10.6692
16.53249
22.08966
27.21751
31.93238
36.18903
39.99674
43.31145
46.08866
48.2424
49.91715
50.97438
51.44876
51.38562
50.85381
49.56705
47.67495
45.21614
42.18688
38.61863
34.52723
29.99139
24.88822
19.44899
13.64771
7.330978
0.7822451
-6.028484
-13.32558
-20.68128
-27.97026
-35.48067
-43.11274
-50.66671
-58.33045
-65.85111
-73.0516
-79.90917
-86.51439
-93.02506
-99.0302
-104.6264
-109.6766
-114.2524
-118.4654
-121.8649
-124.5152
-126.4224
-127.5885
-127.8016
-126.7235
-124.3566
-120.7648
-117.4438
-116.6631
-123.9496
-139.2729
-136.6838
-112.1578
-85.93287
-62.72848
-41.36431
-74.70557
-157.3903
-172.5403
-131.4638
-83.86718
-56.717
-43.9077
-34.61108
-23.41228
-13.19878
-10.92347
-12.97593
-16.50152
-25.17122
-33.09848
-39.46701
-43.01975
-44.56943
-48.39834
-57.63531
-60.51669
-51.78895
-49.19089
-53.52658
-57.05221
-59.23319
-58.60646
-54.55228
-47.36216
-38.28995
-28.39884
-19.56508
-12.87623
-7.967312
-5.686894
-5.087883
-5.208304
-4.902115
-3.783489
-1.773217
0.2921749
-1.903313
-7.255939
-10.97848
-11.4016
-11.52275
-13.14002
-16.84321
-22.53233
-28.80955
-27.8014
-17.38613
-3.041041
7.605085
9.013135
1.396762
-8.85127
-18.04359
-36.01338
-76.18108
-128.3871
-139.2841
-87.50342
-48.37615
-61.35915
-78.84946
-86.03716
-86.03663
-86.29059
-89.49696
-93.02414
-95.91067
-97.55174
-97.74419
-97.60805
-96.54617
-94.8264
-92.04637
-88.75413
-85.40353
-81.26437
-76.66614
-71.39494
-65.8175
-59.88855
-53.52933
-47.22501
-40.90786
-34.20845
-27.31406
-20.60065
-14.05957
-7.547967
-1.068993
5.095272
11.20526
16.97632
22.44209
27.50066
32.1642
36.35942
40.11186
43.36626
46.11899
48.23431
49.88246
50.93126
51.39916
51.33554
50.80094
49.52018
47.66101
45.24597
42.25929
38.73896
34.70078
30.22385
25.16827
19.83456
14.11829
7.8404
1.400237
-5.270436
-12.50914
-19.76406
-26.91311
-34.31735
-41.85806
-49.2894
-56.84621
-64.25731
-71.34439
-78.07227
-84.57116
-91.00846
-96.87893
-102.3909
-107.3239
-111.8067
-115.935
-119.2523
-121.8003
-123.5904
-124.7903
-125.1609
-124.3007
-122.2308
-119.0764
-116.3243
-115.9506
-121.7464
-133.3711
-130.7762
-109.5831
-85.37326
-63.4638
-43.97951
-79.38843
-161.713
-175.2941
-132.8865
-84.14137
-56.45428
-43.72505
-34.53284
-23.47582
-13.1229
-10.37108
-12.79622
-16.84364
-25.42623
-33.3013
-39.67745
-43.18071
-44.68437
-48.58781
-57.98602
-60.8709
-52.49066
-49.99331
-53.98223
-57.20288
-59.16079
-58.41712
-54.46231
-47.28161
-38.28896
-28.59699
-19.84209
-13.25095
-8.126227
-5.902093
-5.279194
-5.364465
-5.032174
-3.905068
-1.963606
0.02467619
-2.308012
-7.644444
-11.13826
-11.47429
-11.80486
-13.60765
-17.43419
-23.42965
-30.11545
-29.14792
-18.38221
-3.825685
7.968214
9.683572
2.039605
-8.67674
-18.44728
-36.47401
-75.41503
-126.4678
-136.8692
-89.48908
-53.71528
-63.1596
-77.07872
-83.54461
-84.31359
-85.05423
-88.03934
-91.22601
-93.9155
-95.57953
-95.76718
-95.78415
-94.48405
-92.77728
-89.98452
-86.61877
-83.37887
-79.22969
-74.75109
-69.503
-63.94694
-58.1555
-51.92186
-45.68384
-39.4317
-32.87717
-26.11909
-19.48863
-12.99588
-6.66676
-0.2591703
5.76557
11.80473
17.44782
22.82298
27.87274
32.42715
36.52916
40.20572
43.402
46.17719
48.2099
49.82522
50.86342
51.31942
51.25604
50.73548
49.47166
47.60165
45.22031
42.29097
38.83647
34.89097
30.49353
25.46188
20.24122
14.66461
8.473049
2.07602
-4.484676
-11.55222
-18.72065
-25.76975
-33.04275
-40.40196
-47.79092
-55.26606
-62.5004
-69.51665
-76.09751
-82.49874
-88.90639
-94.64478
-100.1351
-104.9596
-109.4295
-113.6226
-116.8689
-119.4646
-121.4621
-122.6637
-122.9218
-122.0488
-120.1529
-117.3363
-115.0755
-114.8968
-119.3512
-127.9232
-125.1015
-106.8031
-84.8824
-65.33402
-49.36721
-85.88922
-165.3277
-178.0167
-134.3223
-84.83147
-56.57744
-43.52457
-34.15112
-23.2366
-12.75796
-9.343885
-12.35642
-17.23814
-25.81527
-33.6415
-40.02158
-43.38407
-44.83528
-48.76014
-57.94409
-60.85344
-53.34625
-51.09349
-54.56622
-57.44665
-59.19072
-58.37721
-54.51338
-47.27506
-38.38648
-29.06617
-20.37217
-13.8556
-8.622242
-6.283682
-5.617466
-5.640534
-5.240543
-4.160633
-2.303694
-0.4538685
-2.955455
-7.995369
-11.02927
-11.40585
-11.9892
-14.12832
-18.34349
-24.98062
-32.30458
-31.33088
-19.8668
-4.985374
7.787743
9.896641
2.550901
-8.881507
-19.02748
-36.56319
-71.62267
-117.753
-127.2427
-88.74583
-58.71795
-64.59691
-75.13097
-80.94526
-82.28081
-83.30418
-86.03413
-88.79007
-91.12606
-92.87766
-92.5235
-92.45454
-91.43516
-89.85022
-87.30682
-83.68818
-80.66992
-76.65846
-72.36975
-67.08858
-61.6187
-56.20283
-50.13879
-43.65196
-37.59043
-31.44266
-24.85279
-18.04445
-11.68628
-5.768626
0.6691663
6.471911
12.48457
17.88371
23.34704
28.39018
32.6838
36.66537
40.23971
43.41971
46.23272
48.12267
49.75432
50.76344
51.20226
51.15261
50.66587
49.38114
47.49993
45.11037
42.2515
38.87387
35.0421
30.83961
25.79296
20.65293
15.24448
9.380671
3.040177
-3.780212
-10.53428
-17.3293
-24.52477
-31.72067
-38.60933
-45.83241
-53.61897
-60.36708
-67.39054
-73.78548
-79.9936
-86.39882
-91.86232
-97.3959
-101.9469
-106.2669
-110.5087
-113.5798
-116.0539
-117.6887
-119.0111
-119.5853
-118.8646
-117.2666
-114.8472
-113.2377
-113.2758
-116.6309
-122.6222
-119.223
-103.7528
-84.57765
-68.25436
-56.81401
-92.48912
-166.2597
-178.848
-134.1322
-85.28689
-57.46433
-43.73778
-33.40767
-22.72936
-11.92913
-7.685678
-11.70942
-17.69244
-26.362
-34.10877
-40.60428
-43.86433
-45.06937
-48.78654
-56.84888
-59.81575
-54.03948
-52.3587
-55.27411
-57.82173
-59.3488
-58.51424
-54.74832
-47.28616
-38.72152
0.9130897
0.4147373
-33.78253
-19.46988
11.22151
-16.97773
1.563727
0.9532732
10.46368
-2.387116
-0.7713228
1.170572
-0.9874508
0.3831287
0.520487
2.660025
-7.175766
-4.243487
0.3743853
0.7418819
-60.05599
-11.51574
1.98899
-2.60149
1.258475
2.367049
1.003396
-1.967155
-8.698777
0.6765631
1.342127
-17.35973
-26.44944
1.916754
-0.04539907
-6.22122
1.898402
0.1159612
0.7301526
-7.493765
-24.49608
1.556877
0.2313644
2.40909
32.79555
1.212533
-1.174988
1.595045
3.259912
-1.939133
-3.564279
-5.458784
-6.55745
0.1354103
0.08555737
22.11415
-6.522355
-5.071931
-15.40842
-24.45853
-1.956189
0.01810256
1.937758
1.281942
-1.256763
2.725403
-29.00782
-0.365642
1.342872
-5.156666
-0.6831363
-1.069834
-6.886053
-61.93778
21.45222
0.1459075
3.535166
-3.775221
-13.40648
0.1048256
-24.89402
0.1038571
2.879908
0.4761257
-12.94913
1.44382
-19.22818
0.6332596
-4.786553
1.185256
-19.16058
21.56325
-1.191548
0.3554778
1.291972
1.435937
-30.28458
5.051388
-43.89626
1.415038
1.426374
0.66947
-0.2224854
-93.08796
-0.1471448
-15.55949
-1.309701
1.003634
-3.345825
-16.16335
0.8356605
-0.2244286
-0.007447129
6.70921
-20.17802
0.0386648
0.1423312
0.1092362
19.70259
0.7868826
1.945865
0.09576735
-0.8977717
-2.034022
-1.900012
1.610216
-0.09508436
-26.15787
1.679654
0.1497733
0.08692154
-2.568681
-0.1416071
0.5709664
1.773218
-39.35487
0.02833047
6.600517
1.318931
0.145457
-31.04071
-0.06542737
-70.11049
0.5304749
-0.1231546
-0.2813268
0.6256418
-46.39447
-0.1047022
-0.5380261
-37.70255
-17.16236
-51.08109
-5.992792
-9.63149
-48.52807
0.6726846
0.3247066
0.05741335
-37.9985
-1.296726
-40.42193
-21.58884
-0.01811251
-1.639333
-4.036205
-25.41926
1.380983
-29.9491
-0.7245402
1.452419
-15.22287
1.084906
-32.9166
-8.55722
-21.70727
2.170516
1.254967
-34.32167
2.813395
15.36586
1.116589
0.4738946
0.7814325
2.588129
-50.68674
1.468938
0.2322747
-25.04001
1.099765
0.01769108
1.02855
-11.0285
-3.16588
-0.04169623
0.9556192
-20.09289
-0.3277584
-6.661999
-37.64676
0.5627104
0.07336622
0.7194927
-25.55112
1.410107
-4.10253
-9.30106
-0.3219921
-11.22317
-0.1679382
1.51148
-3.307233
0.758303
-7.125032
0.05873883
-5.928326
-14.05323
0.7465854
3.540157
0.342994
0.4549228
1.253409
2.610604
-2.553828
-4.369301
-0.5871069
1.3698
7.271481
0.4983305
18.54847
-4.152387
-45.64645
3.311996
-0.3429631
-79.31335
0.5031437
26.07837
1.060134
1.860855
-0.5460969
0.4068745
1.123112
-0.4376674
-9.662118
0.8150029
-3.798464
1.388181
-41.17479
0.2400579
-0.2333288
-37.5987
0.4714001
0.5604196
0.7716703
2.59991
-31.5574
0.5465365
0.2144652
17.90997
-6.136741
-3.611823
0.07499706
3.348138
-8.022294
-0.5628827
2.092306
0.989282
-0.1640367
-5.302462
-29.83613
0.2097176
-0.04657825
12.08715
-1.276037
-3.575256
2.986368
1.490796
-23.35805
-34.80109
0.4105764
1.351987
0.3962345
-0.782338
1.196471
1.022898
-0.1609404
35.31994
-0.09804538
1.751023
-3.822056
1.471746
-0.3824124
1.135958
1.371889
-36.72909
0.0993269
-13.12899
-0.09934335
2.532241
-0.6303019
-47.33218
-0.1273444
1.191695
0.8630382
-0.9107102
-0.2571306
-3.999671
1.305011
-35.28669
-7.032078
-1.129387
0.5213007
-0.1719252
1.613023
-0.6936029
-15.02103
34.09793
-69.87633
-13.8634
-66.8023
-1.330838
-0.6157181
0.4174784
-0.7080672
0.05949038
0.7695098
0.6356163
-0.5878433
1.147099
-1.320907
17.48618
-1.146747
-9.740025
-55.59525
1.529582
1.74105
1.947644
-0.297549
-5.782645
-2.286157
-44.49276
-1.673179
0.1233804
0.9119738
-15.99513
3.586949
-8.136411
-0.1731755
-13.48072
0.05166991
0.7190166
0.03861701
12.98146
0.06041673
-1.620008
-24.7082
-57.10516
-0.6857106
0.9101328
-8.783616
1.515903
2.176752
2.942426
1.891198
0.8199593
1.838794
1.574312
-0.9112286
1.161399
1.288877
-4.426735
12.28371
-42.4555
1.144119
1.802531
0.6190501
-2.665068
1.012121
2.895236
1.080244
2.199147
1.472013
-0.207125
-11.54596
-0.06273095
1.377621
1.614326
37.29957
1.751315
-3.392727
-2.561747
0.6321015
1.655683
-38.47134
-0.1859988
-1.360698
0.3177141
-7.734684
1.241169
1.034005
1.760402
0.7069817
-33.25799
1.429208
-2.744362
-9.106354
-35.12445
-54.63926
1.830214
2.549181
-0.1591045
0.1849709
-1.548179
0.8620035
1.708045
-1.02985
1.237676
-8.520531
0.1841477
-2.296792
1.324442
0.04613283
3.855441
0.2159578
-0.2165808
-30.53027
0.2397553
1.142448
-50.09597
0.8139972
-4.183977
-3.669207
-2.844008
-0.1863998
1.959005
-3.435458
-0.9872738
-7.504443
0.1665796
0.7155267
-25.06478
-1.475039
-10.08738
0.822871
-6.124334
1.585274
-0.5964771
0.002411952
-7.350824
-0.5195394
1.102987
-36.10691
2.931406
-7.932717
1.437457
-1.55511
-0.3706205
4.346468
0.9130816
-22.74913
1.074658
-36.32697
0.3037677
1.853299
-5.891582
-1.629827
25.61207
0.7300002
3.448992
-2.456203
-13.07433
-1.997449
1.116117
7.305459
1.383849
-7.397065
3.045472
-32.86735
-0.6339959
0.6148263
-31.92531
1.489364
1.372661
0.884605
1.467842
1.70189
-0.004538002
16.03565
-0.01021456
1.559935
-2.923351
-27.73952
-0.7713412
-0.1208549
-22.85059
1.112068
-0.6882807
3.380701
1.551858
3.278551
1.896446
0.9667124
0.3323987
-6.495344
1.721846
1.156999
0.8659705
1.107618
2.762555
-0.3599593
-29.16479
3.65368
14.8817
-3.100687
-0.8127064
1.006905
-6.242652
-2.555878
-0.4710146
0.3503526
1.147649
0.571392
-7.872865
-2.419083
1.388161
-1.244583
0.2983364
1.866094
0.2340983
0.3975711
-29.8511
-1.063867
-30.84209
0.114384
3.679642
3.874843
2.881743
0.2436092
2.517176
0.1803004
3.872083
1.734174
-0.2454312
2.477253
-46.3767
2.311701
3.211346
-2.998516
-0.3948742
7.142805
1.042528
4.9249
-4.288419
-4.883944
-6.100575
-1.426388
0.8182985
-1.600187
15.44872
-4.481767
0.293297
-16.4526
-4.780146
-19.4756
0.1553764
-0.8123485
1.038443
7.802535
31.03542
-4.680479
1.320923
4.986756
4.060001
-66.0633
-0.1129751
2.486277
1.370904
2.571347
1.715952
-11.64983
-20.48201
-5.630167
5.437604
-0.1097786
1.519637
-25.67988
2.521045
-0.1644388
-85.61252
-5.454668
-1.695487
-12.69716
-14.38089
-0.2620576
0.6496407
0.241124
1.146535
-51.21714
-5.615495
1.819586
1.416414
-1.74418
-0.3076362
-0.2032271
2.276824
-14.94193
-7.215604
0.9614903
-18.61035
1.801801
4.069789
-1.365495
8.762401
-2.646703
8.333254
-12.14697
-0.700734
0.2767171
1.840988
3.731082
0.6929487
1.46284
0.9695582
0.9778771
1.407296
17.45635
2.112783
0.2734926
0.6526879
-3.466945
1.397003
-4.188618
-17.21227
-3.674894
-43.90468
-10.55929
-13.68029
0.9130722
-1.258489
0.5513408
1.238685
0.281994
-1.44903
1.439522
-7.352238
0.1297949
1.350974
-30.08393
1.293409
25.16344
3.877113
-29.58635
1.639876
-3.805897
6.480034
-4.059682
-15.73945
-0.5085731
1.299862
-14.94073
0.4081266
0.7749474
-0.07617796
1.820008
-13.24907
0.03545988
-0.07100865
2.183624
0.3581255
-2.32087
-0.2492839
-0.8906832
-91.54745
1.209597
-0.02387604
4.560212
-10.9643
0.804578
-0.4761863
4.927958
13.35843
8.805504
1.698948
2.384303
-0.2311681
1.628703
1.25082
-4.014484
2.396695
0.9614701
-19.66852
-0.4014541
-71.18812
-8.649753
1.538579
1.514664
-39.80757
1.308068
0.8342126
0.3509919
1.918913
-12.6405
0.4638327
-2.993758
3.453914
1.829693
1.741792
1.1018
-18.65308
1.263903
0.4038735
0.02613124
0.1468685
0.1245176
-2.253812
0.004942749
1.285061
-50.33255
1.741568
-0.05524321
1.559408
0.1881788
0.00568604
0.9910481
-3.50023
1.117104
0.9504231
-29.53667
0.570403
0.643874
0.9168555
0.8737531
1.174724
1.032916
2.28518
0.5395485
1.595925
3.748474
-3.899122
0.8576006
-0.212807
-0.7618753
-1.457631
0.5275283
1.663031
-2.149063
-55.92146
2.354171
4.024975
8.625629
1.014076
-12.59915
-10.26468
2.240151
0.001601225
-67.0693
3.113612
-8.0303
-14.43021
-7.49027
-5.868305
-0.04929165
1.857294
12.12895
0.7930545
2.282227
-38.84238
1.501568
1.110913
0.9953938
-12.15893
22.65993
-8.962438
-6.512124
2.110541
0.9060057
0.7928913
0.2845211
-3.617398
2.830812
-7.801776
-2.306738
-2.059387
0.1770008
3.549806
1.084927
-3.757672
-1.89839
-0.2235997
-0.04531258
-1.239714
-5.399633
30.54146
-1.596769
0.2700575
0.7150934
1.10498
0.452766
0.1914369
-68.83364
0.553662
-80.75978
-6.198504
-0.760348
2.549617
0.1297081
-3.803323
0.1128456
-3.602276
-0.8781504
-2.338257
-5.347766
-48.99867
1.415681
-1.883044
0.2020602
0.3974965
-1.439709
2.115018
-14.35208
-4.786893
15.44017
1.899637
0.8654618
-0.3182932
-0.4756181
1.422288
0.2420203
-0.7910491
0.6125768
-3.682957
1.126249
7.831414
-38.79544
1.252916
-0.4217835
-10.92446
-0.8574919
0.8370547
1.140221
-0.2631659
0.2235424
0.7495215
2.937252
1.720811
2.365683
3.298199
-0.8829453
-1.866473
29.6944
0.827389
-3.535341
1.490066
-58.80498
1.472855
0.6395509
0.3293974
1.214848
32.01039
-0.5782433
1.376802
1.548333
1.02128
1.679899
1.439527
0.3092248
0.2853673
-16.92494
-18.45653
-0.1077912
-0.8899851
-35.88563
0.2765769
-0.8594119
-1.619164
-15.28743
4.787225
28.76373
0.1536783
1.038203
-1.227593
-0.4538182
-0.2654735
10.77191
-2.39705
0.9579373
0.6113451
-0.7694975
0.8810636
0.08825157
-5.310714
-5.166157
-1.104817
-23.02166
2.823729
-0.7587973
0.5413698
-30.80422
-29.88545
5.233746
-7.041255
-0.6045489
0.4862077
7.981627
-27.1664
5.725873
1.336081
0.9200562
-8.802383
28.09462
0.8021019
-0.4150011
-2.184256
-35.04338
-0.5699096
0.2448886
3.493641
0.1306634
-0.3214783
-20.02999
-2.147333
1.480214
0.5531301
0.3209639
0.089542
-0.1418412
-16.1663
-44.73855
2.702931
-48.38754
1.739315
-0.8919743
-14.35436
0.9132067
-2.371542
-37.40431
-0.03714995
-0.004042571
-29.26368
-4.044642
0.4881205
-2.742292
-66.4114
-1.190929
17.00739
-0.00680956
-1.004895
-12.44932
15.59415
-9.595473
0.07970891
0.4336723
3.698005
2.208087
1.065633
1.25495
1.713672
1.084757
0.3718113
-68.39636
-77.93724
1.417356
-13.8988
2.408497
0.3709782
0.9202048
2.493273
0.110052
0.1701425
1.228457
1.087916
0.1830057
4.504397
0.3682533
-19.95914
0.09806852
0.9235429
-42.69353
0.8941277
0.7694789
-0.7077212
-34.62449
-0.506173
-3.94247
2.86616
-9.658196
-31.03053
34.86369
47.75686
0.9561125
1.600098
-7.307034
5.937339
0.8917408
0.1391981
9.981552
-38.94671
0.9820828
1.284477
-1.438902
1.918993
1.038367
-0.8974104
-3.179369
-19.10899
-62.82597
-35.14214
1.657583
1.356333
1.470151
1.863375
-71.59885
-0.9563794
0.8216976
0.9221234
0.5402668
0.6525992
1.358653
-28.7025
-16.88395
0.9297579
0.8966773
-27.70148
1.012088
2.287918
1.067787
0.1754129
6.637242
-0.1274584
-51.97271
-35.47051
-0.9288715
-1.375368
-84.10827
-73.23258
0.9510937
-7.685324
1.615763
0.4247247
0.5158259
-5.641862
0.3615099
1.085883
1.217559
-31.76116
-1.410504
-2.599169
-0.3388492
-1.504562
0.7966659
0.1702414
0.1619539
0.6292763
0.2104485
0.09748521
1.046096
-27.71885
0.9532191
-0.05160983
3.527379
0.004869516
1.61588
1.058371
0.06544936
-6.752698
-16.90362
-16.93937
-1.774965
1.093196
0.142436
-0.3618098
-34.33669
-14.71354
-25.63879
-36.70691
22.83014
2.020516
2.286452
1.695127
-26.23052
0.09707688
3.043355
-23.01011
-4.106107
-0.1897405
-1.385076
2.826472
6.157707
0.7553346
1.462985
-24.91255
-15.02349
-12.79209
1.505079
3.435456
34.35819
-15.41793
-9.397241
0.9687475
2.031116
-1.948522
7.604798
0.1419785
6.793487
0.1894338
0.8696525
-5.43583
0.5013063
-3.911375
0.7599136
-15.95695
1.267413
-80.61499
7.897004
2.550326
17.26285
1.508567
28.65497
-2.851096
-21.35697
-2.475297
0.6840763
13.52231
0.8440149
-49.22301
1.167176
-0.3271338
0.5682092
0.7339728
2.548401
-7.168496
-11.84855
0.2860156
-25.93049
-34.54911
15.68875
-22.43109
1.303719
-5.205531
-12.2225
-1.923176
-11.32179
37.39488
-1.452815
1.399951
-44.08402
1.129918
0.6095882
-0.1786374
-1.596965
-15.59826
-86.99287
0.3101207
0.02515006
-7.955475
1.961832
0.1524012
-11.596
1.739793
8.291958
3.337709
-0.1440911
-0.8123496
-0.5033575
-2.04986
-1.748955
-5.098427
1.69552
1.167132
-40.0559
0.02574165
0.08444063
0.07201143
-2.569357
-22.66852
1.257595
0.6588447
1.627817
-0.5342031
-5.428517
1.547959
0.3678826
1.413859
-83.99248
23.19302
-3.704487
-2.049367
3.26688
-2.413282
0.8999586
0.3396148
0.5989168
-0.15759
-19.52992
0.4341234
0.6606395
-19.85223
1.909816
-1.550803
-0.5450758
1.984448
-1.548896
-0.002680294
1.516577
-1.760899
-18.73694
-25.95433
0.3334351
-1.358487
-1.54112
-0.2197255
0.3252506
-7.49906
1.518868
0.6728802
-0.2589236
-5.565825
0.07256407
-5.120145
2.007826
-47.98969
-0.6732879
0.4615443
0.9881124
-60.21203
1.839797
-39.44132
1.308022
1.207722
-0.1859541
-0.2173921
2.638442
-36.64199
-43.43035
0.1875268
-0.009529552
2.334141
-14.41749
2.798996
2.221406
1.034593
0.5532627
-0.520267
0.8757597
-33.74828
-4.464479
-1.471855
0.221293
1.508058
-1.81567
-0.161784
1.710665
0.8158334
-7.676613
-0.3916668
-1.823856
7.143942
1.907363
-16.18002
0.9211771
-4.830358
-2.375227
-20.13119
0.931606
0.3102078
0.03987661
-22.79671
-81.69327
-49.59737
0.9776261
14.07757
1.393079
-10.59273
-4.567825
0.8137745
15.93299
1.389086
-67.71373
-80.04079
-1.373042
-2.633048
-3.212261
-2.048959
-3.048924
-2.358966
2.223538
1.710199
-0.6768176
-20.15804
-1.250863
1.575047
1.333329
-0.7744085
-2.070762
0.7492641
1.401091
1.422588
-0.3501018
-24.69144
0.5809071
2.433173
0.973929
-2.12155
-41.04022
-7.653896
-1.577495
-1.280227
-0.004872657
1.305129
-30.86838
-2.264417
2.622916
-1.007674
-0.4164665
11.96714
-62.42311
-13.42344
-0.9642145
-1.035062
19.90115
-4.248627
0.2419205
1.15764
-0.4793459
-2.358165
-38.17534
-35.76226
-23.38473
9.289617
6.661731
-2.011148
-62.30555
-52.2318
-77.85116
1.987447
-2.886668
0.3224087
1.779532
0.2427276
-0.6881328
-0.2097397
-1.951233
1.358752
1.329817
1.549547
-0.0557419
-31.35061
-0.6006355
1.236914
-1.218541
-7.096726
19.34419
0.1344562
2.138713
-40.45344
-8.932403
4.583125
-6.814303
-4.619174
-16.43148
-71.63333
0.2354839
-11.36093
0.5112954
-45.63103
-17.2525
0.9828426
1.455435
-15.36339
-0.9570431
13.87173
0.3394673
0.4707759
2.317021
-0.1397603
-12.61532
0.1306576
0.2542304
0.9158405
1.580691
-47.17705
0.0931551
0.7912904
1.754945
1.462441
1.907167
-25.04086
-0.7963629
-36.87784
0.5474808
1.760856
20.49665
-0.997408
0.3797774
-37.24887
0.07690747
-56.49696
1.984177
0.5302098
1.193472
1.053296
-9.319492
-0.3034408
0.5421685
-3.285973
0.1938715
1.637056
-1.868723
23.12648
1.244224
-12.98805
1.59504
-2.55687
1.112607
-85.41864
1.355444
1.254343
3.082126
1.840812
-4.407335
-60.97251
-72.6797
-86.94366
-0.01382647
-3.320716
-42.9641
1.544966
-20.10731
0.2511833
0.214649
-5.092128
-41.17303
-26.19962
-55.91149
-0.4811628
0.06300497
0.1471347
-4.292797
8.831048
0.0910557
0.6514736
1.414823
-9.46391
-1.456918
14.03323
0.5684307
-1.692923
0.585303
1.65853
0.2321775
2.219595
0.9653334
-1.686333
-7.424027
-11.61718
1.545919
-0.3433343
-16.02131
1.438446
-0.5028324
-8.50357
-6.214588
1.138613
0.8143472
-6.965867
-0.003575506
1.498353
-77.40323
26.06889
-4.23794
-0.362699
-1.452874
-36.56976
-0.2926502
1.593813
2.389063
-13.25978
-0.8227135
-0.02057659
1.828564
-21.9941
-1.635167
20.75027
35.85104
0.703735
-10.01567
-15.38289
0.227675
0.2643366
-0.6858995
33.41388
-67.2979
-5.940101
4.101005
2.802116
0.03254571
1.039929
0.8728509
4.165287
-0.5119362
-0.187609
-16.79481
0.8294061
1.640044
0.9630682
-2.146867
-16.32636
-4.215392
0.1206895
-83.92598
26.15027
11.84638
-0.5023991
-6.225804
-1.994
0.05946046
2.249345
31.82577
-23.85444
0.6303109
-1.121575
0.7216097
0.153151
-14.09219
1.333991
-0.3563216
-0.465855
0.8653873
19.01883
-3.426095
-33.26855
1.895306
-0.757225
-4.655976
18.62935
2.468149
4.699297
-37.08179
-20.43549
-0.3485025
0.1898002
1.464961
0.2365089
-45.69987
1.882811
-2.165641
-1.029243
0.8986614
-0.694926
-18.1799
-1.171975
2.889999
-2.794175
0.05157673
0.533992
-0.2044146
-65.30489
-22.09674
-1.768792
3.18393
0.0463135
-0.8335184
-2.293119
-6.875448
0.7571882
-1.562116
-64.0225
-0.3316673
-3.66526
-2.928843
-17.5739
1.848575
1.898737
-13.40263
2.929392
3.831031
1.981153
35.22586
-2.567465
0.9438585
1.187579
1.195592
-6.188225
-19.99533
-32.23297
14.26808
0.3452453
1.444629
0.7927562
0.9111057
0.1864396
-0.147116
-0.0781077
1.496439
-0.6375583
-0.6314689
0.2582344
1.184943
11.60874
7.224186
-5.336642
-4.044572
-2.999483
-2.465298
0.2771283
-15.17516
10.97928
-51.55904
-37.16577
1.209275
1.542671
-81.76428
42.78353
-96.02502
1.832622
0.5003993
4.171922
-0.9225235
9.204484
-27.84689
0.3442253
3.667415
-0.5915979
1.832059
0.9696148
0.8488204
-1.538673
-6.332646
2.429467
-8.404674
-1.877782
1.202412
-30.88684
-34.94748
-47.06681
1.504343
15.21984
1.371509
1.845744
2.894813
-0.6821363
-56.4265
0.2136768
2.837148
32.38088
1.462462
1.177835
1.344961
27.39327
6.317931
-11.43281
2.435514
-2.354846
0.7505292
0.1833186
-67.46799
0.1144464
-64.8797
1.196569
0.9800913
45.01066
0.7937096
0.1300568
1.393972
2.176253
-2.953566
-1.008635
-29.92192
41.45428
1.399941
-1.936459
45.65764
-5.33341
-1.727658
-0.8643929
-26.60089
1.505102
0.2793687
-6.215888
-0.7919887
-8.72471
-66.71519
1.266779
1.25689
0.4333165
1.187927
18.6066
1.396829
0.6193263
1.18985
0.3497208
-0.4447663
-0.6379561
-0.4562158
-0.5226584
-0.3169453
-9.011001
-17.67315
-23.87543
-20.80115
-21.52392
-27.34302
-2.318657
2.996516
-0.5452388
0.2599845
3.401274
-46.18072
-18.19277
26.86618
-23.32466
0.3667801
-3.656042
-4.200852
-12.56246
-11.32604
-14.60677
1.446861
-68.73002
-0.4881499
-1.144137
0.4334176
0.2217008
1.331216
0.3608214
0.2545667
0.5254334
-0.08482765
1.256723
2.340995
-7.846896
-0.43577
0.341939
0.8779392