/*--------------------------------*- C++ -*----------------------------------*\
| =========                 |                                                 |
| \\      /  F ield         | OpenFOAM: The Open Source CFD Toolbox           |
|  \\    /   O peration     | Version:  2406                                  |
|   \\  /    A nd           | Website:  www.openfoam.com                      |
|    \\/     M anipulation  |                                                 |
\*---------------------------------------------------------------------------*/
FoamFile
{
    version     2.0;
    format      ascii;
    arch        "LSB;label=32;scalar=64";
    class       volVectorField;
    location    "1.92";
    object      U;
}
// * * * * * * * * * * * * * * * * * * * * * * * * * * * * * * * * * * * * * //

dimensions      [0 1 -1 0 0 0 0];

internalField   nonuniform List<vector> 
15536
(
(0.123827 -5.218699 -4.065458e-22)
(0.2167813 -3.843005 -3.342631e-19)
(0.208882 -2.451991 -4.436293e-19)
(0.1042858 -1.096765 -2.77295e-19)
(-0.07577898 0.1758925 -3.34236e-21)
(-0.3011435 1.273498 1.405284e-21)
(-0.5104763 2.049169 2.769964e-21)
(-0.4397782 1.663943 -2.755459e-21)
(-0.08018336 0.3344249 5.415563e-19)
(0.07052406 -0.2559253 2.617393e-19)
(-0.2099266 0.3670622 0)
(-0.1181567 0.2730739 0)
(0.04434522 -0.09229895 -1.022828e-20)
(0.2514047 -0.4525806 3.12467e-18)
(1.201751 -1.681819 1.572547e-18)
(1.837258 -2.442256 -3.135382e-18)
(0.9498366 -1.269534 1.758651e-18)
(-0.4590848 0.4136738 2.080636e-20)
(-1.732255 1.793907 -4.685081e-20)
(-2.660934 2.707923 2.620719e-20)
(-2.846956 2.802392 0)
(-1.639367 1.661938 2.18339e-18)
(1.147083 -0.7101932 0)
(3.468309 -2.449004 -9.316822e-19)
(2.398776 -1.708262 7.875067e-21)
(-0.3246183 0.04975674 -4.434143e-21)
(-2.118465 1.109965 4.444941e-21)
(-3.512868 1.745929 -2.471011e-18)
(-5.529793 2.486011 -4.618176e-18)
(-8.409373 3.445337 0)
(-10.95094 4.23889 -6.125641e-20)
(-9.054453 3.515388 -8.00438e-18)
(-0.5580469 0.5707775 5.228968e-18)
(5.144557 -1.43425 0)
(-0.9430625 -0.1528336 -4.260779e-18)
(-3.08633 0.3124696 -2.444585e-20)
(-4.21906 0.4109863 3.320208e-18)
(-1.554682 0.1180071 -1.566909e-18)
(5.014242 0.1023281 1.466074e-21)
(9.373837 0.4940094 -3.621437e-19)
(11.75511 1.022324 1.479383e-18)
(12.99712 1.622872 -2.381307e-20)
(13.7128 2.277487 2.35355e-20)
(14.12473 2.937343 0)
(14.33866 3.587566 -5.959029e-18)
(14.39225 4.212464 -5.916499e-18)
(14.28595 4.800625 0)
(14.07821 5.355954 -1.125037e-17)
(13.79735 5.882011 1.094858e-17)
(13.47233 6.382921 1.05434e-17)
(13.09303 6.843931 3.822018e-20)
(12.6544 7.260906 -9.502238e-18)
(12.16441 7.628868 0)
(11.63228 7.949495 0)
(11.06749 8.219194 7.549882e-18)
(10.46794 8.430073 6.868081e-18)
(9.851676 8.592834 4.487028e-20)
(9.225236 8.705746 5.282213e-18)
(8.576197 8.750789 9.100325e-18)
(7.917242 8.736136 3.759323e-18)
(7.256411 8.664759 2.910039e-18)
(6.60689 8.545678 -1.989094e-20)
(5.965822 8.369577 0)
(5.331005 8.130161 4.729799e-19)
(4.715228 7.843665 0)
(4.116368 7.496199 1.176128e-18)
(3.542245 7.094377 -2.973661e-20)
(3.002768 6.648374 -2.803763e-21)
(2.497548 6.155925 1.206821e-20)
(2.031126 5.621764 -4.135822e-18)
(1.608989 5.053919 -1.974082e-20)
(1.231831 4.449655 2.711149e-18)
(0.9012466 3.810149 2.967882e-18)
(0.6224562 3.149929 0)
(0.3952168 2.475277 0)
(0.2233243 1.782213 3.556016e-18)
(0.1033091 1.080882 -1.387321e-22)
(0.03870835 0.4042774 9.581608e-19)
(0.02335686 -0.2412266 1.752506e-21)
(0.06238253 -0.9579967 -7.167064e-21)
(0.1508229 -1.725279 -1.767925e-18)
(0.2981915 -2.478084 0)
(0.5022551 -3.201161 3.130671e-18)
(0.7594299 -3.893671 0)
(1.068051 -4.555454 -2.57993e-18)
(1.425916 -5.185571 2.23984e-18)
(1.83198 -5.782543 1.634603e-20)
(2.282878 -6.345248 3.137672e-18)
(2.775624 -6.865102 7.698138e-21)
(3.305869 -7.340195 -1.598004e-18)
(3.870929 -7.772213 -7.551039e-19)
(4.468202 -8.155159 2.296168e-21)
(5.095475 -8.4919 1.015403e-18)
(5.743098 -8.778599 -1.920018e-18)
(6.407147 -9.010027 2.555128e-20)
(7.076709 -9.172862 7.180828e-21)
(7.757071 -9.282288 -4.611735e-18)
(8.443884 -9.338502 0)
(9.128267 -9.333225 1.2642e-17)
(9.812941 -9.277635 7.109536e-18)
(10.47799 -9.157377 1.208562e-19)
(11.11986 -8.975113 -8.890334e-18)
(11.73475 -8.734093 0)
(12.32154 -8.438534 0)
(12.87934 -8.096798 0)
(13.3995 -7.70668 0)
(13.87206 -7.269202 1.233124e-17)
(14.29395 -6.788314 1.299137e-17)
(14.66577 -6.268791 2.834082e-20)
(14.98187 -5.71804 -1.392166e-17)
(15.22579 -5.133739 -7.10324e-18)
(15.38539 -4.520278 -7.337276e-18)
(15.40885 -3.873499 5.741843e-20)
(15.26865 -3.198649 7.491622e-18)
(14.93975 -2.506849 3.859057e-18)
(14.34823 -1.813935 -2.984268e-20)
(13.27365 -1.164991 -7.226505e-21)
(11.14505 -0.5924152 4.757793e-19)
(6.811517 -0.1475347 -9.426028e-19)
(0.9990906 0.04944905 -2.43606e-20)
(-2.2936 -0.4339067 1.66336e-20)
(-5.815418 -1.349577 4.76147e-18)
(-7.794967 -1.706769 3.672063e-20)
(-5.825075 -1.21188 0)
(-3.28546 -0.6470804 -5.927109e-18)
(0.4414632 0.4743383 -4.397903e-18)
(6.988122 2.819133 -1.525491e-22)
(4.067363 1.326093 8.885232e-18)
(-6.855595 -3.885568 -1.785248e-17)
(-11.19717 -6.096443 0)
(-9.654455 -5.492533 0)
(-7.178537 -4.409082 -1.045634e-17)
(-5.043382 -3.383166 0)
(-3.658383 -2.675862 4.172411e-20)
(-2.48287 -1.922117 -4.830747e-18)
(-0.910874 -0.6716718 -3.221762e-18)
(1.235616 1.219938 1.316553e-20)
(2.598702 2.566633 -3.140709e-18)
(2.350778 2.48229 -2.919653e-20)
(1.178383 1.270271 4.581534e-18)
(-0.2368865 -0.5057322 3.565511e-18)
(-1.055744 -1.639711 4.715488e-18)
(-1.260964 -2.00384 5.61117e-18)
(-1.026326 -1.724994 0)
(-0.4270363 -0.6350431 -2.400063e-20)
(0.4522594 1.15371 -6.82625e-18)
(1.277243 2.875982 0)
(1.123872 2.407469 8.466732e-18)
(0.06259229 0.07291053 -6.060957e-20)
(0.02950042 0.3480948 2.908299e-20)
(-0.1138713 -0.7398197 3.785217e-18)
(-0.7519831 -4.512987 3.304591e-21)
(-1.002682 -6.93133 0)
(-0.9192575 -7.821539 1.897166e-18)
(-0.6475473 -7.810346 1.441371e-20)
(-0.3387184 -7.291075 2.73893e-21)
(-0.06712572 -6.410937 -3.472232e-21)
(-0.07419321 -5.434975 -1.952664e-19)
(0.05637621 -4.006686 2.722268e-19)
(0.08104056 -2.564344 0)
(-0.01189935 -1.15792 2.26646e-19)
(-0.1929772 0.1664057 0)
(-0.4211948 1.278288 5.748954e-19)
(-0.6403706 2.186347 2.260239e-21)
(-0.7554479 2.716066 -2.220496e-21)
(-0.519627 1.88443 -4.290572e-19)
(-0.3460184 0.9500231 -2.082364e-19)
(-0.1624533 0.3281482 0)
(0.2305525 -0.3939104 4.081594e-21)
(0.7617592 -1.236011 4.12859e-21)
(1.858008 -2.725569 -1.20476e-18)
(2.495543 -3.55285 -2.516304e-18)
(1.798764 -2.717032 1.25297e-18)
(0.4196501 -0.9722223 -1.386029e-18)
(-0.7546795 0.4784406 -1.268302e-20)
(-1.970581 1.817708 0)
(-2.865483 2.768552 0)
(-3.105811 2.990287 0)
(-2.614955 2.65701 1.718429e-18)
(0.1284788 0.4374422 -2.322591e-21)
(3.982927 -2.787937 2.398928e-21)
(2.349268 -2.009637 -3.798774e-21)
(-0.06686015 -0.3900164 3.891881e-21)
(-1.252601 0.4685171 0)
(-2.265201 0.8993449 0)
(-3.895215 1.362634 7.595052e-18)
(-6.580825 2.190139 7.802174e-20)
(-8.592999 2.941916 -7.904898e-20)
(-10.2609 3.969005 6.300413e-18)
(-4.312299 2.122583 3.939703e-18)
(3.052938 -0.7390826 -2.392224e-20)
(1.615259 -0.7583789 -3.431173e-18)
(2.112107 -0.5269845 2.506159e-18)
(3.87054 -0.2659589 6.24376e-22)
(9.075529 -0.03648386 1.042349e-18)
(15.07264 0.150913 0)
(17.35542 0.426955 2.548201e-19)
(17.94465 0.8548821 2.169419e-18)
(18.09111 1.429498 2.284386e-18)
(18.0633 2.080631 2.327863e-18)
(17.92715 2.74117 -7.277502e-20)
(17.72109 3.409049 4.763941e-18)
(17.45694 4.070167 -3.629363e-20)
(17.14989 4.721498 0)
(16.78923 5.346288 8.954545e-18)
(16.37047 5.94336 0)
(15.90773 6.508351 -6.326791e-20)
(15.39485 7.029018 6.344027e-20)
(14.82865 7.502083 7.578968e-18)
(14.21636 7.921104 -5.293462e-20)
(13.56513 8.286046 6.57928e-18)
(12.88268 8.593215 -6.067995e-18)
(12.17227 8.83975 0)
(11.44418 9.034018 3.539136e-20)
(10.7053 9.171563 -4.330594e-18)
(9.951406 9.239763 -7.23335e-18)
(9.187325 9.240215 0)
(8.425246 9.183022 -2.335293e-18)
(7.674129 9.069581 -1.029384e-20)
(6.934772 8.892684 9.834418e-19)
(6.208321 8.651483 2.380959e-23)
(5.50101 8.352179 -2.410598e-23)
(4.817875 7.991104 -9.538926e-19)
(4.162037 7.572271 1.596648e-18)
(3.54404 7.100646 0)
(2.964957 6.581529 0)
(2.429841 6.018969 -1.767707e-20)
(1.942975 5.414745 0)
(1.507218 4.770331 0)
(1.124432 4.088911 0)
(0.7994568 3.381447 -2.643003e-18)
(0.530767 2.658974 2.119289e-20)
(0.3292434 1.914512 1.174133e-20)
(0.1840167 1.161992 -5.744239e-21)
(0.1031363 0.4310669 -7.869153e-19)
(0.08469683 -0.2709437 3.142944e-21)
(0.1422506 -1.041065 -7.625334e-19)
(0.2497149 -1.859753 1.438825e-18)
(0.4264864 -2.662509 1.091001e-20)
(0.6680592 -3.433427 -2.535016e-18)
(0.9693881 -4.173163 -3.66989e-20)
(1.329517 -4.881635 2.134637e-18)
(1.744652 -5.553191 -1.863386e-18)
(2.21516 -6.187767 0)
(2.733612 -6.785263 -5.122874e-18)
(3.298592 -7.331804 -1.27858e-20)
(3.907159 -7.830948 1.295867e-18)
(4.553603 -8.286249 6.18055e-19)
(5.235476 -8.684538 0)
(5.950951 -9.028996 0)
(6.691234 -9.324175 0)
(7.449722 -9.552499 2.009594e-20)
(8.220938 -9.710688 -1.995131e-20)
(9.004329 -9.809994 3.624918e-18)
(9.794525 -9.84874 5.792059e-21)
(10.58745 -9.823042 -5.108834e-18)
(11.37739 -9.737821 -8.074335e-20)
(12.15401 -9.588325 1.282763e-17)
(12.90918 -9.371772 7.063621e-18)
(13.63858 -9.091201 -5.722707e-20)
(14.34513 -8.752788 8.126846e-18)
(15.02379 -8.361505 6.617046e-20)
(15.66619 -7.913323 -7.455632e-20)
(16.26498 -7.41376 7.422499e-20)
(16.81661 -6.865423 8.123042e-20)
(17.32079 -6.274982 1.065471e-17)
(17.77374 -5.646787 -8.391562e-20)
(18.16093 -4.982782 0)
(18.48872 -4.290377 0)
(18.78212 -3.584215 0)
(19.02504 -2.874117 0)
(19.19682 -2.167862 2.264898e-20)
(19.27779 -1.467723 -2.255522e-20)
(19.21839 -0.8289951 1.384242e-18)
(18.87906 -0.3479221 5.264968e-21)
(17.01252 -0.05325348 0)
(11.83698 0.1391106 -1.34627e-18)
(2.632386 -0.1265966 3.236109e-18)
(-5.026782 -0.8640245 -4.079663e-18)
(-1.0847 -0.03348814 5.95139e-20)
(0.06324305 0.3658436 -6.716916e-18)
(1.421139 0.7992106 3.919149e-20)
(2.816633 1.501588 0)
(7.199726 3.007407 4.597307e-18)
(1.347261 -0.4859857 -1.29492e-17)
(-9.887863 -5.708424 -1.285674e-17)
(-10.17751 -5.242818 -7.112136e-21)
(-8.944785 -4.570995 -1.926657e-19)
(-6.63829 -3.602062 8.38652e-20)
(-4.687007 -2.812259 0)
(-3.406539 -2.279814 4.93981e-18)
(-2.36323 -1.620757 3.880674e-18)
(-1.062648 -0.4669278 9.605887e-21)
(1.040845 1.470673 -1.402524e-18)
(3.155243 3.369629 2.524377e-18)
(3.328813 3.465266 1.455467e-18)
(1.306459 1.134606 1.758524e-21)
(-0.5686836 -1.096641 -2.842907e-18)
(-1.166317 -1.734031 -2.639026e-20)
(-1.337903 -1.989521 -4.651394e-18)
(-1.156789 -1.736698 4.00139e-20)
(-0.5937309 -0.6145454 8.12939e-21)
(0.2397505 1.126085 -4.880737e-20)
(0.9840657 2.468499 0)
(1.463446 3.055961 0)
(0.6197192 1.310054 -6.030761e-18)
(-0.2218505 -1.173803 0)
(-0.8930536 -4.821986 -5.610151e-18)
(-1.465753 -7.981617 2.888925e-18)
(-1.499901 -8.615828 -2.388361e-20)
(-1.274258 -8.502478 2.434167e-20)
(-0.9655711 -8.234599 1.457122e-18)
(-0.6213858 -7.642799 -6.438692e-19)
(-0.3040628 -6.68773 -2.526178e-19)
(-0.1879766 -5.429527 1.560965e-19)
(-0.08432295 -4.019211 -2.190019e-19)
(-0.05668288 -2.595565 3.676127e-21)
(-0.1423652 -1.203038 -1.876865e-19)
(-0.3097542 0.1302398 0)
(-0.5084442 1.236871 -4.713897e-19)
(-0.6598819 2.05627 -3.711158e-21)
(-0.7648858 2.740364 2.331808e-19)
(-0.6813047 2.567735 3.47899e-19)
(-0.5333997 1.726631 1.673749e-19)
(-0.07490654 0.3816599 -3.552794e-20)
(0.6518804 -0.9381908 -5.119403e-22)
(1.657642 -2.454285 0)
(2.722813 -3.928015 0)
(2.537493 -3.738878 1.027484e-18)
(1.291805 -2.274626 1.027749e-18)
(0.09697079 -0.8513754 1.155295e-18)
(-0.9497281 0.4489798 2.065447e-20)
(-2.135022 1.75457 0)
(-2.939038 2.758952 2.538736e-18)
(-3.042367 3.019466 2.460204e-18)
(-2.444875 2.754225 -1.389618e-18)
(-0.8482747 1.664821 0)
(2.99213 -1.831886 -6.245786e-19)
(1.856218 -1.902295 0)
(0.6191392 -0.9946282 7.803077e-20)
(0.2424014 -0.4125607 0)
(-0.2111674 -0.2313294 -1.765665e-18)
(-1.694406 0.1140886 -6.368902e-18)
(-4.213666 0.903124 0)
(-6.250152 2.015706 0)
(-7.038714 3.211693 5.288011e-20)
(-4.612015 2.725132 -3.116941e-18)
(3.022745 -0.3245441 1.867878e-18)
(8.758713 -1.722091 5.212841e-18)
(11.36802 -1.383474 -1.723656e-18)
(13.51783 -0.7142156 1.705814e-18)
(16.30183 -0.01993027 -7.693287e-19)
(17.91006 0.3808367 0)
(17.64933 0.7165354 0)
(17.55597 1.259062 -1.799815e-18)
(17.56301 1.923939 -1.915334e-18)
(17.52362 2.61495 -3.803583e-18)
(17.41457 3.302022 3.798354e-18)
(17.24328 3.987816 8.994249e-20)
(17.01147 4.644917 -5.988651e-20)
(16.71346 5.276515 0)
(16.34688 5.869506 0)
(15.92523 6.433191 7.011437e-18)
(15.4608 6.967649 -6.760375e-18)
(14.94969 7.45458 0)
(14.38784 7.89344 0)
(13.78331 8.277175 8.680392e-20)
(13.14134 8.608813 -5.484519e-18)
(12.47118 8.882167 0)
(11.77633 9.09401 -4.389165e-18)
(11.0647 9.256299 -3.914515e-18)
(10.34512 9.362892 -3.375247e-18)
(9.614293 9.399518 2.905168e-18)
(8.873221 9.371172 -3.317618e-20)
(8.135103 9.288462 1.860475e-18)
(7.408635 9.152026 0)
(6.696371 8.952975 -8.013803e-19)
(5.998607 8.691373 3.479433e-22)
(5.318947 8.375094 8.307298e-21)
(4.668351 7.996315 -8.500298e-19)
(4.041661 7.564383 0)
(3.452112 7.082051 -1.866594e-18)
(2.899696 6.55514 -1.985139e-20)
(2.39154 5.986679 2.795865e-18)
(1.928882 5.37938 1.613305e-18)
(1.515717 4.733759 -1.809092e-18)
(1.152542 4.053106 -1.991279e-18)
(0.8438807 3.347647 2.149194e-18)
(0.5865904 2.628992 -2.295473e-18)
(0.3977225 1.887815 -1.17475e-18)
(0.2555022 1.139438 2.472901e-18)
(0.1732592 0.4122512 1.286833e-18)
(0.1548144 -0.2888455 2.588576e-21)
(0.2234744 -1.0504 6.30762e-19)
(0.3260804 -1.858567 -9.391808e-21)
(0.4938406 -2.650854 0)
(0.7221312 -3.413653 -1.580898e-20)
(1.005224 -4.147967 -1.324682e-20)
(1.344626 -4.852833 -1.690215e-18)
(1.734908 -5.523094 3.060018e-18)
(2.181965 -6.157341 -1.314218e-18)
(2.672001 -6.75826 2.079168e-18)
(3.206355 -7.310718 1.451157e-20)
(3.786291 -7.817238 0)
(4.401489 -8.283988 5.599486e-19)
(5.051649 -8.696004 -4.869235e-21)
(5.737758 -9.055334 5.771704e-19)
(6.448344 -9.369174 0)
(7.176121 -9.619313 1.75581e-18)
(7.919907 -9.800092 0)
(8.676579 -9.925121 -5.455969e-20)
(9.440059 -9.992632 3.499883e-18)
(10.21037 -9.995618 0)
(10.97727 -9.943213 -4.701995e-18)
(11.73309 -9.828436 -5.262955e-18)
(12.4699 -9.647746 -5.791091e-18)
(13.18299 -9.403504 0)
(13.87718 -9.100378 -1.358045e-17)
(14.54551 -8.746091 1.086727e-19)
(15.18048 -8.334193 0)
(15.7745 -7.871513 0)
(16.32417 -7.358929 0)
(16.83006 -6.801927 8.639822e-18)
(17.28421 -6.211968 -8.940197e-18)
(17.67891 -5.583621 0)
(18.0086 -4.919321 0)
(18.27365 -4.228424 4.702546e-18)
(18.47859 -3.513183 3.749024e-20)
(18.61377 -2.780727 0)
(18.67312 -2.045971 0)
(18.67178 -1.327379 -2.310459e-18)
(18.74745 -0.7090203 2.705743e-19)
(19.07652 -0.3026031 0)
(18.1997 -0.03681715 9.405516e-19)
(12.35583 0.01205872 5.426961e-20)
(5.559504 0.2609382 1.787198e-20)
(6.147928 1.56363 -4.959601e-20)
(7.457271 2.31492 4.77126e-18)
(7.890236 2.622577 3.576855e-18)
(7.306769 2.914212 4.874618e-20)
(6.6744 2.544631 3.957689e-20)
(-1.076902 -2.349635 4.976146e-18)
(-8.259603 -5.593539 1.041088e-17)
(-8.194121 -4.355414 0)
(-7.196798 -3.389298 1.045981e-17)
(-5.048072 -2.369064 0)
(-3.390099 -1.771177 -7.109086e-20)
(-2.461827 -1.476935 -4.074785e-18)
(-1.699968 -0.9470282 4.238935e-20)
(-0.8725825 -0.01731126 -4.119715e-20)
(0.7236608 1.594622 1.13055e-18)
(2.933617 3.313553 -1.032209e-18)
(3.237278 3.143278 -1.183164e-18)
(1.140132 0.5167795 -1.483594e-18)
(-0.1823575 -0.8801311 -2.335455e-18)
(-0.5851814 -1.095751 0)
(-0.973782 -1.565325 -3.886267e-21)
(-1.098318 -1.559978 0)
(-0.7864251 -0.6263907 -4.203457e-18)
(-0.09347944 0.8913299 4.473359e-18)
(0.6557285 1.997681 0)
(1.312991 2.433919 0)
(0.8131577 1.187783 9.559358e-18)
(-0.5489498 -3.523605 -2.152072e-18)
(-1.159109 -7.050625 4.338958e-18)
(-1.379437 -8.307774 -1.874314e-20)
(-1.305336 -8.321169 1.945089e-20)
(-1.115308 -8.459361 0)
(-0.8587867 -8.229399 -1.191408e-18)
(-0.6044046 -7.617678 1.029491e-18)
(-0.3588205 -6.668717 2.08665e-19)
(-0.3506269 -5.420122 -2.544644e-19)
(-0.2548618 -4.023631 -4.593179e-21)
(-0.2208776 -2.604926 4.72507e-21)
(-0.3175336 -1.208234 -4.007364e-21)
(-0.4681099 0.1376833 4.086691e-21)
(-0.6338777 1.250911 1.931037e-19)
(-0.7463924 2.032761 -3.054961e-21)
(-0.7664584 2.604083 -1.933392e-19)
(-0.6712396 2.676196 5.148087e-21)
(-0.5337096 2.104515 -1.316819e-19)
(0.07386874 0.4985294 -2.961963e-21)
(1.07489 -1.279609 0)
(2.241204 -3.079792 0)
(2.853317 -4.08166 -7.958078e-19)
(2.060701 -3.34159 -8.698158e-19)
(0.8214479 -2.022023 -1.683129e-18)
(-0.2055522 -0.8040168 -9.425599e-19)
(-1.170146 0.3924596 0)
(-2.347283 1.681357 0)
(-3.045323 2.750888 -4.182419e-18)
(-3.053131 3.096326 -4.078715e-18)
(-2.193059 2.750339 1.023085e-20)
(-1.073797 2.306621 -7.12773e-21)
(1.693341 -0.5074636 1.026782e-18)
(1.451723 -1.681352 6.136498e-19)
(1.675918 -1.678265 -5.884424e-20)
(2.007574 -1.374223 7.290693e-19)
(1.801599 -1.364407 1.335297e-18)
(0.472159 -1.172983 2.642233e-18)
(-1.5747 -0.576123 0)
(-3.328512 0.7672776 -1.539017e-19)
(-3.242689 2.235003 -9.469449e-18)
(-2.664484 2.773291 7.68657e-20)
(6.170164 -0.2579492 6.426735e-20)
(14.10388 -2.098731 -1.913478e-18)
(16.27615 -1.870802 -1.215399e-18)
(17.49447 -1.059898 -5.353443e-20)
(17.90594 -0.1855331 -6.132973e-19)
(17.5261 0.1874239 -3.106004e-19)
(17.31518 0.4145796 -2.627695e-21)
(17.52624 0.877302 0)
(17.65175 1.471805 -2.408443e-20)
(17.67925 2.117843 1.598189e-18)
(17.60387 2.78283 -6.277329e-18)
(17.45185 3.458754 4.854956e-20)
(17.22931 4.119576 -3.116746e-18)
(16.93378 4.761869 -9.373807e-20)
(16.57276 5.365615 -5.879617e-18)
(16.15386 5.945063 -7.512748e-21)
(15.69122 6.500772 5.576857e-18)
(15.18307 7.006428 -5.228215e-18)
(14.62312 7.467046 0)
(14.01965 7.872095 7.010391e-20)
(13.37668 8.22766 -7.055007e-20)
(12.70368 8.526154 0)
(12.00399 8.764028 3.615885e-18)
(11.2864 8.952126 7.176554e-20)
(10.5597 9.084356 2.821178e-18)
(9.821817 9.145296 -2.324867e-18)
(9.074961 9.13794 -1.890352e-18)
(8.327466 9.077708 -1.50336e-18)
(7.592486 8.962139 -1.022819e-18)
(6.872126 8.782273 5.939853e-21)
(6.164964 8.539175 -6.000883e-21)
(5.47527 8.241063 0)
(4.815096 7.878841 6.912381e-19)
(4.178263 7.46257 -2.07635e-20)
(3.579542 6.994229 1.553862e-18)
(3.018551 6.47995 1.906469e-18)
(2.504277 5.922268 -2.270009e-18)
(2.03538 5.32502 -1.323583e-18)
(1.616832 4.68858 -3.860176e-21)
(1.248712 4.01652 1.632667e-18)
(0.9379654 3.318188 2.821458e-20)
(0.676489 2.606648 1.83819e-18)
(0.4884584 1.869862 1.543534e-20)
(0.3439488 1.124332 -1.032593e-18)
(0.2584773 0.3991983 -5.240858e-19)
(0.2390014 -0.3066685 -6.421412e-23)
(0.3203386 -1.060136 5.001954e-19)
(0.4228225 -1.857657 7.687659e-21)
(0.5897328 -2.639926 -9.183096e-19)
(0.8201028 -3.39352 1.719238e-18)
(1.105872 -4.117978 0)
(1.448694 -4.811832 -3.903348e-21)
(1.842488 -5.470257 -1.258892e-18)
(2.295767 -6.09194 1.106499e-18)
(2.790481 -6.680853 -1.796213e-18)
(3.334367 -7.218431 1.786903e-20)
(3.925458 -7.709577 -1.76933e-20)
(4.547147 -8.162807 -4.601234e-19)
(5.207413 -8.557927 0)
(5.907927 -8.897729 -4.814153e-19)
(6.626122 -9.195577 2.922108e-20)
(7.362774 -9.426812 -6.791224e-20)
(8.117288 -9.586465 -1.834177e-18)
(8.88308 -9.690588 -2.426242e-18)
(9.655044 -9.735928 -1.61374e-20)
(10.43324 -9.715566 3.278934e-18)
(11.20903 -9.637541 -5.51465e-20)
(11.97122 -9.497799 -4.19747e-18)
(12.71383 -9.290323 0)
(13.43377 -9.016759 5.039724e-18)
(14.13166 -8.687411 5.516033e-18)
(14.79989 -8.310528 5.70162e-18)
(15.43418 -7.874819 -6.049197e-18)
(16.026 -7.389969 6.464161e-18)
(16.57301 -6.855195 0)
(17.07594 -6.276784 -1.414369e-17)
(17.52629 -5.670314 1.475807e-17)
(17.91605 -5.025012 -1.747873e-19)
(18.24052 -4.349439 -3.792605e-18)
(18.50221 -3.64496 -3.857374e-18)
(18.6916 -2.933814 0)
(18.79936 -2.221609 1.98387e-18)
(18.80934 -1.521362 -1.962954e-18)
(18.71199 -0.8732738 9.602374e-19)
(18.51653 -0.3473053 -2.336251e-19)
(18.50925 -0.05985235 -4.294277e-19)
(19.32911 0.01577118 1.216334e-20)
(18.29993 0.1549584 -1.62347e-18)
(15.69736 1.151239 4.556317e-20)
(15.07331 2.888513 0)
(14.59881 3.807973 0)
(13.66356 3.988945 -7.479302e-20)
(11.92019 3.945386 7.824701e-20)
(7.53982 2.169856 0)
(-1.422051 -3.456045 0)
(-5.403613 -4.861856 0)
(-6.517621 -3.398357 1.243429e-17)
(-5.532706 -2.089643 -1.74893e-17)
(-3.382795 -0.9877814 5.999382e-18)
(-1.582557 -0.3762826 -4.290516e-18)
(-1.027235 -0.351589 -1.126251e-19)
(-0.6562354 -0.01401417 2.784587e-18)
(-0.3609828 0.6495917 1.80236e-18)
(0.4799309 1.784057 1.354966e-20)
(2.438711 3.025053 -1.455158e-23)
(2.757661 2.3303 -1.404666e-20)
(1.02273 -0.06672269 -2.38652e-20)
(0.127098 -0.6891031 1.974913e-18)
(-0.3277076 -0.8144944 0)
(-0.6635047 -1.155697 3.216731e-18)
(-0.9716356 -1.321322 -3.470037e-18)
(-0.9822891 -0.6935355 3.445197e-18)
(-0.4944146 0.513287 0)
(0.2206371 1.306331 0)
(1.110277 1.595185 -6.806082e-20)
(0.7880801 -0.008341985 -3.760875e-18)
(-0.6539776 -5.429538 1.706765e-18)
(-1.095684 -7.664786 -1.752075e-18)
(-1.289799 -7.971255 0)
(-1.357039 -8.256797 0)
(-1.215296 -8.410974 0)
(-0.9655676 -8.172242 -9.601095e-19)
(-0.7221125 -7.573434 -4.357426e-19)
(-0.4972845 -6.640549 -3.409959e-19)
(-0.535596 -5.399139 1.038374e-19)
(-0.4497946 -4.016852 0)
(-0.4114987 -2.588228 -1.964025e-19)
(-0.5340536 -1.156128 0)
(-0.6586872 0.1751362 -1.8087e-19)
(-0.7838145 1.296106 0)
(-0.8433518 2.07311 0)
(-0.7908668 2.552931 -1.612883e-19)
(-0.6150809 2.634891 -2.407668e-19)
(-0.4300451 2.290221 1.075957e-19)
(0.2760873 0.6842851 2.495095e-20)
(1.433982 -1.325658 1.11626e-19)
(2.486287 -3.097483 0)
(2.609477 -3.702498 1.341414e-18)
(1.508715 -2.872522 7.103123e-19)
(0.3605548 -1.784109 7.162005e-19)
(-0.5023533 -0.7838905 -2.330286e-20)
(-1.420392 0.3123678 -3.68987e-20)
(-2.60701 1.600992 -1.293786e-18)
(-3.172257 2.736478 3.482631e-18)
(-3.029211 3.18386 1.685152e-18)
(-2.049699 2.84773 1.781356e-20)
(-0.7974344 2.473571 1.368169e-19)
(0.8090416 0.557245 -4.229782e-19)
(1.421891 -1.488876 -5.230403e-19)
(2.993149 -2.347535 0)
(3.879307 -2.326279 -9.921047e-21)
(3.952437 -2.518964 0)
(3.00896 -2.635459 1.995551e-18)
(1.58703 -2.2649 4.257151e-18)
(0.2269966 -0.6974514 8.436914e-18)
(0.2523336 1.163254 -2.645149e-19)
(1.078784 2.395839 8.650838e-20)
(10.45011 -0.1340273 -2.064004e-18)
(16.32305 -1.922047 0)
(16.86875 -1.874244 -9.189173e-19)
(17.50204 -1.103392 -1.091935e-18)
(17.32428 -0.19533 1.032396e-18)
(16.99667 0.2923597 2.486266e-19)
(17.08864 0.6867886 0)
(17.26592 1.23758 5.951783e-19)
(17.36632 1.86986 0)
(17.37867 2.527654 0)
(17.29844 3.180133 2.621278e-18)
(17.1444 3.848439 -3.996051e-20)
(16.92428 4.48555 4.678797e-20)
(16.63303 5.101428 -2.45667e-18)
(16.27833 5.673377 4.9378e-18)
(15.86599 6.221611 -4.700735e-18)
(15.41315 6.746721 -4.515938e-18)
(14.92074 7.212261 2.131561e-19)
(14.37448 7.639959 -1.304117e-19)
(13.78833 8.010027 -1.137212e-19)
(13.16201 8.336048 -3.254105e-18)
(12.5079 8.606962 -3.282713e-18)
(11.82778 8.817692 -8.494936e-20)
(11.12768 8.984699 2.683177e-18)
(10.42303 9.095573 0)
(9.708487 9.135723 1.914223e-18)
(8.979504 9.114122 1.555989e-18)
(8.250821 9.041646 1.145362e-18)
(7.53688 8.915283 8.414668e-19)
(6.836363 8.727367 0)
(6.149278 8.476582 0)
(5.47635 8.175716 -2.684939e-19)
(4.835506 7.810104 0)
(4.212537 7.394738 0)
(3.629293 6.928118 1.340545e-18)
(3.084339 6.41635 -2.97444e-20)
(2.579146 5.864589 -1.266557e-20)
(2.117631 5.273136 -3.593563e-20)
(1.706964 4.642559 2.479538e-18)
(1.347396 3.976314 0)
(1.046315 3.283703 0)
(0.7810039 2.582792 1.554233e-18)
(0.5980594 1.85202 7.7544e-19)
(0.4508702 1.109756 8.319778e-19)
(0.3616112 0.3882717 -4.287271e-19)
(0.3413623 -0.3240666 0)
(0.4395681 -1.065993 -3.280417e-22)
(0.5427942 -1.852497 2.436585e-20)
(0.6987825 -2.625657 7.28161e-19)
(0.9214137 -3.368137 -1.408831e-18)
(1.201338 -4.080098 -3.903208e-20)
(1.538296 -4.762203 1.18012e-18)
(1.925487 -5.410238 3.442196e-20)
(2.371972 -6.023555 1.79024e-18)
(2.851794 -6.608178 -1.548861e-20)
(3.381215 -7.141792 -1.168444e-18)
(3.962315 -7.630354 2.970283e-20)
(4.568416 -8.084856 0)
(5.207218 -8.483408 5.958349e-20)
(5.892754 -8.826335 0)
(6.596079 -9.129808 0)
(7.310106 -9.371316 -1.147654e-18)
(8.044665 -9.540926 3.023146e-18)
(8.793124 -9.656186 6.560289e-20)
(9.544186 -9.716539 -1.229548e-19)
(10.30202 -9.712639 -2.693615e-18)
(11.05693 -9.655348 -3.017393e-18)
(11.79867 -9.537967 3.571978e-18)
(12.51963 -9.356953 -3.851392e-18)
(13.21763 -9.112944 -7.85977e-20)
(13.89826 -8.810836 0)
(14.54879 -8.465963 -4.935724e-18)
(15.16759 -8.061872 1.036729e-17)
(15.74485 -7.612372 -5.499708e-18)
(16.27827 -7.114055 0)
(16.77123 -6.571839 9.688668e-20)
(17.21299 -6.000869 -5.91474e-18)
(17.59642 -5.3878 -9.440759e-20)
(17.91764 -4.741674 1.494435e-19)
(18.17557 -4.063675 -9.861035e-20)
(18.36672 -3.368227 0)
(18.47738 -2.672278 -3.164286e-18)
(18.49888 -1.970084 1.52827e-18)
(18.42419 -1.291186 7.573878e-19)
(18.28657 -0.685586 -1.178668e-20)
(18.09119 -0.2259294 3.519496e-19)
(18.53303 -0.01021978 6.564276e-19)
(19.44439 0.3247704 0)
(19.52276 1.71709 1.617384e-18)
(18.84858 3.610226 -9.699872e-20)
(17.50997 4.48781 2.824455e-18)
(15.97694 4.508759 0)
(14.31718 4.187133 0)
(9.13334 1.718166 0)
(-0.0523299 -3.860096 8.255296e-20)
(-2.475981 -3.955705 7.978605e-18)
(-4.259229 -2.278446 -1.122527e-17)
(-3.59805 -0.6163377 7.68862e-18)
(-1.834262 0.3775418 -9.895832e-18)
(0.158233 1.009868 3.60908e-18)
(0.822839 1.012037 0)
(0.721898 1.079589 -2.258565e-18)
(0.4629885 1.442848 -1.444699e-18)
(0.4097565 2.000869 7.976224e-19)
(1.873047 2.547862 -2.414266e-20)
(2.179836 1.345339 -2.830333e-20)
(0.9354305 -0.5435571 2.809745e-20)
(0.1090766 -0.8662384 0)
(-0.3187876 -0.8790347 -2.223602e-18)
(-0.4901691 -0.9906101 8.682415e-20)
(-0.8681195 -1.184693 5.690304e-18)
(-1.168074 -0.840143 -2.920698e-18)
(-0.9440019 -0.0223472 1.949566e-19)
(-0.3351788 0.4478303 -3.901287e-18)
(0.9041932 0.8966114 0)
(0.7294857 -1.72675 -3.012748e-18)
(-0.5392417 -6.655173 1.369218e-18)
(-0.9216618 -7.590935 -9.06733e-20)
(-1.191216 -7.830626 1.729279e-18)
(-1.263268 -8.254443 -8.028922e-20)
(-1.157431 -8.347079 2.752518e-20)
(-1.005875 -8.103477 8.019777e-19)
(-0.8296566 -7.506612 -4.862918e-21)
(-0.6478046 -6.594895 4.992136e-21)
(-0.755604 -5.365118 4.484826e-21)
(-0.6964491 -4.005582 1.152964e-19)
(-0.6590015 -2.573643 1.601244e-19)
(-0.7728396 -1.070164 -1.035681e-19)
(-0.87474 0.2145541 1.47519e-19)
(-0.9579125 1.339698 0)
(-0.9564141 2.138914 1.32022e-19)
(-0.8282015 2.580712 1.411657e-19)
(-0.5712576 2.620172 1.984583e-19)
(-0.2831698 2.419109 0)
(0.5134013 0.9547224 0)
(1.693398 -1.079674 -9.032001e-20)
(2.467186 -2.655444 -1.4198e-20)
(2.142401 -3.066938 -5.548805e-19)
(0.8665971 -2.347481 -5.938064e-19)
(-0.08675951 -1.570161 -5.945312e-19)
(-0.8083484 -0.7806664 6.791551e-19)
(-1.731844 0.2487784 -8.256085e-19)
(-2.922989 1.541901 1.01088e-18)
(-3.328173 2.739737 -1.400044e-18)
(-2.975476 3.26795 0)
(-1.897105 3.005946 0)
(-0.3563225 2.450433 -1.270326e-19)
(0.5871362 1.124844 0)
(1.975948 -1.423056 8.761673e-21)
(4.538398 -2.928513 -1.437662e-20)
(5.810389 -3.173653 -4.245174e-19)
(6.149637 -3.655834 -2.034145e-20)
(5.725631 -4.14171 1.924702e-20)
(5.072343 -4.085236 -3.319011e-18)
(4.281064 -2.459402 -2.557709e-20)
(4.016643 0.08332287 3.231527e-18)
(6.710695 1.74839 -3.959427e-20)
(14.12896 0.090058 8.801666e-19)
(16.35198 -1.526099 -3.293812e-20)
(16.17425 -1.698141 3.180002e-18)
(16.9494 -1.029839 2.58186e-20)
(16.95486 -0.2660229 -8.328409e-21)
(16.95656 0.1613173 -4.297327e-19)
(17.11631 0.51337 -3.544678e-21)
(17.2866 0.991314 -4.910161e-19)
(17.39452 1.568328 -3.177189e-20)
(17.41022 2.192658 -9.868526e-19)
(17.32786 2.826118 2.042318e-18)
(17.17246 3.492209 -2.038557e-18)
(16.95849 4.122557 3.933332e-18)
(16.6691 4.757386 2.150424e-18)
(16.31612 5.344472 0)
(15.9023 5.911109 0)
(15.44971 6.457671 3.662164e-18)
(14.95799 6.941992 3.487505e-18)
(14.41196 7.38715 0)
(13.82865 7.768363 -9.127738e-20)
(13.2024 8.108222 2.951192e-18)
(12.54571 8.397809 2.615533e-18)
(11.86694 8.619562 2.277729e-18)
(11.17303 8.79154 -5.979606e-20)
(10.47052 8.914303 -1.698134e-18)
(9.753603 8.969919 4.21409e-20)
(9.029595 8.953776 -4.255139e-20)
(8.309553 8.884519 -9.655408e-19)
(7.598781 8.767169 6.363716e-19)
(6.894847 8.594117 0)
(6.216148 8.347323 0)
(5.546092 8.056258 4.586722e-19)
(4.914433 7.696314 -8.66529e-21)
(4.296114 7.289464 -8.286666e-21)
(3.728525 6.827103 -1.033632e-18)
(3.192248 6.322357 -2.607715e-18)
(2.680854 5.78735 1.462218e-18)
(2.222433 5.208094 -1.75022e-18)
(1.816548 4.588198 -9.696746e-19)
(1.465454 3.93048 -3.309254e-20)
(1.17223 3.242076 0)
(0.9011178 2.554953 -1.212895e-18)
(0.7318378 1.833865 -4.08153e-20)
(0.5794793 1.09479 -6.914133e-19)
(0.4871928 0.3786622 3.671577e-19)
(0.467761 -0.3403809 -3.198731e-23)
(0.5815877 -1.067762 -3.55602e-19)
(0.6764104 -1.846657 3.020769e-20)
(0.8267114 -2.607327 -6.34765e-19)
(1.040169 -3.330794 1.154849e-18)
(1.313583 -4.026035 -1.102943e-18)
(1.646109 -4.6955 2.952638e-21)
(2.029349 -5.332244 8.874213e-19)
(2.480276 -5.934186 -1.425786e-18)
(2.951022 -6.513237 1.19419e-18)
(3.469327 -7.041416 8.755012e-19)
(4.05116 -7.521444 8.829462e-21)
(4.665036 -7.963767 9.260341e-21)
(5.296352 -8.355528 -4.226903e-20)
(5.965128 -8.699875 -2.242931e-19)
(6.66841 -8.995187 2.275756e-20)
(7.381423 -9.226738 8.405952e-19)
(8.107923 -9.390358 -2.437083e-18)
(8.848363 -9.502153 1.52342e-18)
(9.604325 -9.545159 -5.880124e-20)
(10.35947 -9.531417 -2.173273e-18)
(11.10664 -9.470355 4.970095e-18)
(11.84846 -9.339772 9.070565e-20)
(12.56634 -9.14849 2.987131e-18)
(13.26446 -8.888543 -3.46505e-18)
(13.94686 -8.569755 1.072863e-19)
(14.59599 -8.212092 -3.905685e-18)
(15.21499 -7.789771 -3.980003e-18)
(15.791 -7.324856 1.366981e-19)
(16.32529 -6.803921 -4.559401e-18)
(16.81845 -6.240172 4.698346e-18)
(17.25952 -5.650515 0)
(17.64064 -5.020765 0)
(17.95778 -4.356499 2.543022e-18)
(18.21118 -3.675649 2.542152e-18)
(18.40091 -2.98805 0)
(18.51346 -2.297521 1.355237e-18)
(18.53549 -1.620485 1.236527e-18)