/*--------------------------------*- C++ -*----------------------------------*\
| =========                 |                                                 |
| \\      /  F ield         | OpenFOAM: The Open Source CFD Toolbox           |
|  \\    /   O peration     | Version:  2406                                  |
|   \\  /    A nd           | Website:  www.openfoam.com                      |
|    \\/     M anipulation  |                                                 |
\*---------------------------------------------------------------------------*/
FoamFile
{
    version     2.0;
    format      ascii;
    arch        "LSB;label=32;scalar=64";
    class       surfaceScalarField;
    location    "2.9";
    object      phi;
}
// * * * * * * * * * * * * * * * * * * * * * * * * * * * * * * * * * * * * * //

dimensions      [0 3 -1 0 0 0 0];

oriented        oriented;

internalField   nonuniform List<scalar> 
23794
(
-0.002466585
0.002723582
-0.0002569967
-0.001973239
-0.0004933461
-0.002263875
0.0002906356
-0.003865802
0.001601927
-0.004318244
0.0004524416
-0.002533966
-0.001784277
-5.700526e-05
-0.002476961
0.002079541
-0.002136546
0.001740041
0.0003395006
0.0004709001
0.00126914
-0.0007505266
0.001221427
-0.001108536
0.000358009
0.0003642681
-0.001472804
0.001948344
-0.001584076
0.002828487
-0.000880143
0.002978678
-0.0001501911
0.00186627
0.001112408
4.870964e-05
0.00181756
-0.001354152
0.001402862
-0.001751755
0.0003976033
-0.00058303
-0.001168725
0.002120595
-0.002703625
0.004811881
-0.002691286
0.006869053
-0.002057172
0.008510823
-0.001641769
0.008428177
8.264593e-05
0.001205348
0.007222829
-0.005678174
0.006883522
-0.003646782
-0.002031392
-7.015293e-05
-0.003576629
0.002220142
-0.002290294
0.004468392
-0.002248251
0.007993378
-0.003524986
0.009890258
-0.001896879
0.006248172
0.003642086
0.00116522
0.005082952
-0.0001755254
0.001340746
-0.001725965
0.00155044
-0.006474139
0.004748174
-0.01023112
0.003756978
-0.01232254
0.002091424
-0.0134607
0.001138158
-0.01416221
0.0007015127
-0.01462694
0.0004647251
-0.0149445
0.0003175635
-0.01506625
0.0001217494
-0.0150882
2.195436e-05
-0.01505699
-3.121395e-05
-0.01497599
-8.100162e-05
-0.01487839
-9.760213e-05
-0.01472199
-0.0001563925
-0.01452481
-0.000197181
-0.01426958
-0.0002552371
-0.01399059
-0.0002789852
-0.01369468
-0.0002959113
-0.01334501
-0.0003496712
-0.01297571
-0.0003692966
-0.01259862
-0.0003770877
-0.01215801
-0.0004406161
-0.01169495
-0.0004630593
-0.01120689
-0.0004880591
-0.01071264
-0.0004942474
-0.010198
-0.0005146438
-0.00963405
-0.0005639474
-0.009078293
-0.0005557572
-0.008481834
-0.0005964591
-0.007868153
-0.0006136812
-0.00724946
-0.0006186928
-0.006622486
-0.0006269743
-0.005964838
-0.0006576482
-0.005305568
-0.0006592694
-0.004638769
-0.0006667995
-0.003958973
-0.0006797961
-0.003280635
-0.0006783382
-0.002621154
-0.0006594809
-0.001924579
-0.0006965749
-0.001244551
-0.0006800276
-0.00057794
-0.0006666114
0.0001502105
-0.0007281505
0.0009515608
-0.0008013503
0.001685062
-0.0007335008
0.002392033
-0.0007069717
0.003085264
-0.0006932305
0.003759807
-0.0006745434
0.004434224
-0.0006744169
0.005089971
-0.0006557472
0.00575811
-0.0006681384
0.006406895
-0.0006487853
0.007022535
-0.0006156401
0.007642415
-0.0006198799
0.008249609
-0.0006071945
0.008834659
-0.0005850499
0.009416932
-0.0005822727
0.009984863
-0.000567931
0.01049918
-0.0005143157
0.0110089
-0.0005097202
0.01150369
-0.0004947939
0.01195729
-0.0004535977
0.01241182
-0.0004545247
0.01281508
-0.0004032667
0.0131908
-0.0003757137
0.01352789
-0.0003370987
0.01382269
-0.0002947928
0.01411289
-0.0002902078
0.01436623
-0.0002533356
0.01458076
-0.000214527
0.01475353
-0.0001727688
0.01488453
-0.0001309997
0.01498536
-0.0001008317
0.01502584
-4.048645e-05
0.01503601
-1.01614e-05
0.01495199
8.401276e-05
0.0146845
0.0002674938
0.01423982
0.0004446789
0.0135527
0.0006871151
0.01237309
0.001179618
0.01010587
0.00226722
0.00616037
0.003945497
0.00140215
0.00475822
0.0001312602
0.00127089
0.001417352
-0.001286092
-0.0007451899
0.002162542
-0.006623332
0.005878142
-0.009260347
0.002637015
-0.00706905
-0.002191297
-0.004286093
-0.002782957
-0.002876066
-0.001410028
-0.002329095
-0.0005469706
-0.001130697
-0.001198398
0.00156228
-0.002692978
0.004114362
-0.002552082
0.002232822
0.00188154
-0.0016081
0.003840922
-0.004589919
0.002981819
-0.005896918
0.001306998
-0.006229602
0.0003326842
-0.005093912
-0.00113569
-0.002739841
-0.002354072
-0.0003732516
-0.002366589
0.001522693
-0.001895945
0.002513069
-0.0009903754
0.002839292
-0.0003262229
0.003070921
-0.0002316294
0.003042546
2.837545e-05
0.002055057
0.0009874884
0.000429829
0.001625229
-0.001324367
0.001754196
-0.002760397
0.001436031
-0.002848749
8.835187e-05
-0.002521397
-0.0003273523
-0.002681629
0.0001602319
-0.002921673
0.0002400445
-0.003118566
0.0001968927
-0.003147488
2.892231e-05
-0.003035621
-0.0001118673
-0.002837127
-0.0001984937
-0.0001135453
-0.003383693
0.002992525
0.0001341711
-0.004203845
0.0003268062
-0.005262795
0.001349585
-0.006231633
0.002570766
-0.005570102
-0.0002090893
-0.003298005
-0.004056375
-0.0006318314
-0.005143135
0.001965039
-0.004733417
0.00239517
-9.063037e-05
0.0006263402
0.00303797
-0.001667348
0.003515115
-0.001587115
0.0002777765
0.0006073917
-0.00366731
0.002422142
-0.003398826
0.003550781
-0.002008782
0.004019326
-0.0006187358
0.003324387
0.001807347
0.0008482893
0.004293658
-0.002126772
0.004377923
-0.002901133
0.001171964
-0.0005123155
-0.003557543
0.003018711
-0.006234651
0.006007416
-0.005679991
0.008317206
-0.004366962
0.009893292
-0.003217855
0.01130781
-0.00133187
0.004518645
0.01401199
-0.005850767
0.01725293
-0.00605196
-0.001830198
-0.002975485
-0.006653105
-0.00178461
-0.00348117
0.0001136929
-0.004146553
0.002962866
-0.006374159
0.006851441
-0.005785454
0.006831296
0.00366223
0.001447063
0.01046719
-0.006500755
0.009288563
-0.01419131
0.009240992
-0.01891785
0.009474717
-0.02108619
0.005925321
-0.0216567
0.002661931
-0.02181225
0.001293703
-0.02183422
0.0007234905
-0.02179112
0.0004216201
-0.0217112
0.0002376428
-0.02152446
-6.499018e-05
-0.02132249
-0.0001800119
-0.02110935
-0.000244354
-0.02084855
-0.0003418048
-0.02057188
-0.0003742709
-0.02023469
-0.0004935847
-0.01985744
-0.0005744324
-0.01941761
-0.0006950666
-0.01895288
-0.0007437107
-0.01847725
-0.0007715482
-0.01794365
-0.0008832715
-0.01738617
-0.000926769
-0.01682508
-0.0009381831
-0.01619103
-0.001074664
-0.01553585
-0.001118242
-0.01485185
-0.001172059
-0.01416018
-0.001185913
-0.01345074
-0.001224082
-0.01268282
-0.001331868
-0.01192589
-0.001312686
-0.01112684
-0.001395514
-0.01030566
-0.001434866
-0.009481999
-0.001442349
-0.008653155
-0.001455819
-0.007786932
-0.001523871
-0.006918032
-0.00152817
-0.00604314
-0.001541692
-0.005154162
-0.001568774
-0.004269429
-0.001563071
-0.00340527
-0.00152364
-0.002502614
-0.001599231
-0.001616968
-0.001565673
-0.0007433878
-0.001540192
0.0001968344
-0.001668373
0.001222146
-0.001826662
0.002174731
-0.001686086
0.003096348
-0.001628588
0.003999146
-0.001596029
0.004882644
-0.001558042
0.005767301
-0.001559073
0.006630407
-0.001518853
0.007507974
-0.001545706
0.008364308
-0.001505119
0.00918046
-0.001431792
0.01000389
-0.001443312
0.01081684
-0.001420144
0.0116021
-0.001370305
0.01238477
-0.001364944
0.0131558
-0.001338962
0.01386347
-0.00122199
0.01457015
-0.001216396
0.01526021
-0.001184855
0.01590434
-0.001097729
0.01655158
-0.001101765
0.01713871
-0.0009903961
0.0177022
-0.0009392045
0.0182225
-0.0008574009
0.01869639
-0.0007686798
0.01917189
-0.000765705
0.01960833
-0.0006897765
0.02000229
-0.0006084837
0.02035378
-0.0005242682
0.02066216
-0.0004393753
0.0209423
-0.0003809714
0.02115895
-0.0002571403
0.02137552
-0.0002267278
0.02157314
-0.000113607
0.02168504
0.0001555973
0.02175071
0.0003790031
0.0217729
0.0006649254
0.02168432
0.001268203
0.02112578
0.002825754
0.01883789
0.006233394
0.01477652
0.008819584
0.009661976
0.006385438
0.004336294
0.004039591
-0.001755077
0.008253912
-0.006514932
0.010638
-0.006771066
0.002893149
-0.00374227
-0.005220092
-0.0008953025
-0.005629925
0.0001132063
-0.002418536
0.0003279168
-0.0007616811
0.0008872783
-0.001757759
0.003238771
-0.00504447
0.005662406
-0.004975717
0.001629588
0.005914358
-0.004010754
0.009481265
-0.0067677
0.005738765
-0.007719246
0.002258544
-0.007865314
0.0004787525
-0.006362822
-0.002638181
-0.003460628
-0.005256266
-0.0004055391
-0.005421678
0.002391709
-0.004693193
0.004149742
-0.002748408
0.004652381
-0.0008288627
0.004543572
-0.0001228203
0.004469418
0.0001025294
0.003908392
0.001548515
0.001378883
0.004154737
-0.001864048
0.004997127
-0.003027608
0.002599591
-0.002579405
-0.0003598512
-0.002454308
-0.0004524485
-0.002808995
0.0005149187
-0.003212039
0.0006430879
-0.003504952
0.0004898061
-0.003560641
8.46117e-05
-0.003406834
-0.0002656745
-0.003066411
-0.000538917
-0.0001874307
-0.003880754
0.003307877
0.0007070491
-0.005474392
0.001920444
-0.006852684
0.002727877
-0.007358207
0.003076289
-0.006466464
-0.001100833
-0.004138159
-0.00638468
-0.001356138
-0.007925155
0.00171458
-0.007804135
0.002774372
-0.001150422
0.000283785
0.005528557
-0.002490912
0.006289812
-0.001905514
-0.0003076216
0.0006512232
-0.006224048
0.002962992
-0.005710595
0.004334291
-0.003380081
0.004835611
-0.001120056
0.004188652
0.002454306
0.001822506
0.006659804
-0.001852291
0.008052721
-0.003069832
0.002389505
0.0001320101
-0.006759385
0.003949239
-0.01005188
0.006871775
-0.008602527
0.009181569
-0.006676757
0.01084629
-0.00488258
0.01235765
-0.002843224
0.006561375
0.01980826
-0.004705388
0.0285197
-0.008802833
0.002267247
-0.008554067
-0.006901871
-0.008939029
-0.003096208
-0.007796215
-0.005289367
-0.004482882
-0.009687492
-0.0008686768
-0.009399659
0.001845329
0.0009482245
-0.005010267
0.01732278
-0.01747223
0.02175053
-0.02425091
0.01601967
-0.02555274
0.01077655
-0.02548125
0.005853829
-0.02545488
0.002635567
-0.02555948
0.001398299
-0.02564134
0.0008053551
-0.02567695
0.0004572297
-0.02566981
0.0002305043
-0.02550959
-0.0002252151
-0.02529842
-0.0003911803
-0.02505794
-0.0004848313
-0.02475925
-0.0006404985
-0.02444405
-0.0006894696
-0.02405329
-0.0008843466
-0.02361591
-0.001011815
-0.02310184
-0.001209131
-0.02255787
-0.001287685
-0.02200174
-0.001327677
-0.02137314
-0.001511872
-0.02071585
-0.001584052
-0.02005571
-0.00159833
-0.01930512
-0.001825248
-0.0185293
-0.00189407
-0.01771845
-0.001982902
-0.01689801
-0.002006354
-0.01605616
-0.002065936
-0.01514179
-0.002246232
-0.01424204
-0.002212437
-0.01328891
-0.002348645
-0.01230935
-0.002414424
-0.01132596
-0.002425742
-0.01033578
-0.002445998
-0.009300073
-0.00255958
-0.008260733
-0.00256751
-0.007213109
-0.002589316
-0.00614887
-0.002633013
-0.005088436
-0.002623505
-0.004052015
-0.002560061
-0.002971693
-0.002679553
-0.001911664
-0.002625703
-0.0008663645
-0.002585491
0.0002478697
-0.002782607
0.001459854
-0.003038646
0.002596324
-0.002822556
0.003698732
-0.002730996
0.004778624
-0.002675921
0.005836177
-0.002615595
0.006894588
-0.002617484
0.007926288
-0.002550553
0.008974992
-0.002594409
0.009997097
-0.002527225
0.01097078
-0.002405472
0.01195285
-0.002425382
0.01292108
-0.002388377
0.0138556
-0.002304826
0.01478715
-0.002296493
0.01570351
-0.002255322
0.016543
-0.002061481
0.01738177
-0.002055165
0.01819975
-0.002002832
0.01896122
-0.001859196
0.01972821
-0.001868763
0.02042075
-0.001682929
0.0210858
-0.001604259
0.02169798
-0.001469581
0.02225271
-0.001323408
0.02281107
-0.001324072
0.02332001
-0.001198712
0.02377942
-0.001067891
0.0241867
-0.0009315497
0.02454254
-0.0007952157
0.02486448
-0.0007029079
0.0251117
-0.0005043634
0.02535102
-0.0004660477
0.02553319
-0.0002957764
0.02558112
0.0001076667
0.02556304
0.0003970814
0.02551553
0.0007124315
0.02547586
0.001307877
0.02565042
0.002651191
0.02586044
0.006023376
0.02508108
0.009598941
0.02162822
0.009838297
0.01295496
0.01271286
0.002049831
0.01915904
-0.002278862
0.01496669
-0.0005456616
0.001159949
0.001891823
-0.007657577
0.005319957
-0.009058059
0.006722558
-0.003821137
0.006249781
-0.0002889036
0.005400956
-0.0009089342
0.005809878
-0.005453393
0.006156487
-0.005322326
0.000631615
0.01143923
-0.005060453
0.01517333
-0.007830071
0.008508383
-0.009056138
0.003484611
-0.009272558
0.0006951725
-0.007441689
-0.004469051
-0.004118975
-0.008578979
-0.0007080846
-0.008832569
0.002515094
-0.007916371
0.004829697
-0.005063011
0.005694592
-0.001693758
0.005650569
-7.87967e-05
0.005403535
0.0003495633
0.005043643
0.001908407
0.002533455
0.006664924
-0.001329326
0.008859908
-0.002322345
0.003592609
-0.001686724
-0.000995472
-0.001863497
-0.0002756746
-0.002420835
0.001072256
-0.003200746
0.001422999
-0.003921786
0.001210846
-0.004227989
0.0003908148
-0.004102594
-0.0003910697
-0.003602179
-0.001039332
-0.0004817333
-0.004153406
0.003871645
0.0009888106
-0.006018071
0.003785109
-0.007725996
0.004435802
-0.008177828
0.003528121
-0.007208149
-0.002070511
-0.004893337
-0.008699492
-0.0022805
-0.01053799
0.001064312
-0.01114895
0.002426858
-0.002512969
-0.0008928729
0.008848288
-0.003261215
0.008658154
-0.002034763
-0.001534074
0.0006495889
-0.0089084
0.003561794
-0.008622799
0.00524393
-0.005062217
0.005879458
-0.001755585
0.005071574
0.00326219
0.002914877
0.008816501
-0.0008635784
0.01183118
-0.002440123
0.003966049
0.001072914
-0.01027242
0.004806335
-0.0137853
0.007389297
-0.01118549
0.009679344
-0.008966804
0.01143263
-0.006635867
0.01268917
-0.004099761
0.007588702
0.02490873
-0.003942712
0.04005111
-0.01238477
0.01070931
-0.01571829
-0.00356835
-0.01781017
-0.001004328
-0.01752924
-0.005570297
-0.01477616
-0.01244057
-0.01016847
-0.01400735
-0.0101674
0.0009471506
-0.018512
0.02566738
-0.02818054
0.03141907
-0.03063047
0.0184696
-0.03022997
0.01037605
-0.03031615
0.005940014
-0.03067043
0.00298984
-0.03093418
0.001662052
-0.0310843
0.0009554771
-0.0311259
0.0004988302
-0.03110566
0.0002102606
-0.03088319
-0.0004476794
-0.03060248
-0.0006718977
-0.03028877
-0.00079854
-0.02990577
-0.0010235
-0.02950589
-0.001089349
-0.02901872
-0.001371512
-0.02847716
-0.00155338
-0.02784464
-0.001841644
-0.02717682
-0.001955507
-0.0264961
-0.002008394
-0.02573067
-0.002277311
-0.02493101
-0.002383707
-0.02412853
-0.002400809
-0.0232213
-0.00273248
-0.02228188
-0.002833491
-0.02130159
-0.002963194
-0.02031112
-0.002996822
-0.01929627
-0.003080788
-0.01819301
-0.003349487
-0.01710989
-0.003295562
-0.01596153
-0.003497004
-0.01478297
-0.003592987
-0.01359872
-0.003609987
-0.01240693
-0.003637792
-0.01116062
-0.003805889
-0.009909815
-0.003818311
-0.008648442
-0.003850688
-0.007368628
-0.003912827
-0.006090643
-0.00390149
-0.004842658
-0.003808046
-0.003541681
-0.00398053
-0.002265323
-0.003902062
-0.001009586
-0.003841227
0.0003131899
-0.004105383
0.001747934
-0.00447339
0.003106918
-0.00418154
0.004431747
-0.004055826
0.005728381
-0.003972555
0.006997575
-0.003884789
0.008267399
-0.003887308
0.009504829
-0.003787983
0.0107648
-0.003854382
0.01199023
-0.003752654
0.01316022
-0.003575466
0.01434128
-0.00360644
0.01550377
-0.003550867
0.01662897
-0.00343002
0.01775228
-0.003419808
0.01885457
-0.003357612
0.0198682
-0.003075113
0.02088189
-0.003068856
0.02186953
-0.00299047
0.02279154
-0.002781208
0.02372107
-0.002798291
0.02456199
-0.002523852
0.02537011
-0.002412373
0.02611596
-0.002215433
0.0267962
-0.002003652
0.02748062
-0.002008494
0.0281061
-0.001824188
0.02867528
-0.001637067
0.02918101
-0.001437286
0.02962848
-0.001242679
0.03003772
-0.001112148
0.03035812
-0.0008247632
0.03067131
-0.0007792384
0.03091928
-0.0005437535
0.03099597
3.098046e-05
0.0309751
0.000417949
0.0308775
0.0008100338
0.03068149
0.001503887
0.03044505
0.002887637
0.03065761
0.005810812
0.03110806
0.009148486
0.03039314
0.01055322
0.02411
0.018996
0.01257623
0.03069281
0.005425737
0.02211718
0.006159849
0.0004258368
0.01030693
-0.01180466
0.01361708
-0.01236821
0.01481841
-0.005022463
0.01407294
0.0004565584
0.01207952
0.001084493
0.009889355
-0.00326323
0.007030166
-0.002463137
0.0002486163
0.01822078
-0.005250075
0.02067202
-0.008552455
0.01181076
-0.01006311
0.004995266
-0.0103165
0.0009485673
-0.00809382
-0.006691735
-0.004322136
-0.01235066
-0.0007235279
-0.01243118
0.0026508
-0.0112907
0.005269785
-0.007681996
0.006439999
-0.002863972
0.006639382
-0.0002781798
0.006439092
0.0005498533
0.006151519
0.002195981
0.00409642
0.008720023
0.0001014895
0.01285484
-0.001220314
0.004914413
-0.0009415626
-0.001274223
-0.001612685
0.0003954475
-0.002598935
0.002058506
-0.003823971
0.002648035
-0.004910937
0.002297812
-0.005336612
0.00081649
-0.005146075
-0.000581607
-0.004464477
-0.001720929
-0.001074566
-0.004345901
0.004593064
0.0007416475
-0.006002514
0.005441722
-0.008046398
0.006479686
-0.008546804
0.004028528
-0.007405209
-0.003212106
-0.005323314
-0.01078139
-0.003414464
-0.01244684
-0.0009399059
-0.0136235
0.0001032815
-0.003556156
-0.003200487
0.01215206
-0.004315784
0.009773451
-0.002335969
-0.003513888
0.000763485
-0.01200785
0.004340604
-0.01219992
0.00641138
-0.007132993
0.007252528
-0.002596733
0.00621841
0.004296307
0.004108945
0.01092597
0.0007943061
0.01514582
-0.0008039337
0.005564289
0.002357942
-0.0134343
0.005403378
-0.01683074
0.007442817
-0.01322493
0.009801755
-0.01132574
0.01149816
-0.008332275
0.01262191
-0.005223508
0.007672773
0.02985787
-0.004491799
0.05221568
-0.01708488
0.02330239
-0.02399511
0.003341872
-0.02767459
0.002675153
-0.02894706
-0.004297827
-0.02886932
-0.01251831
-0.02812565
-0.01475103
-0.02992271
0.002744217
-0.03405819
0.02980286
-0.03642011
0.033781
-0.03574107
0.01779055
-0.03562186
0.01025683
-0.03606235
0.006380507
-0.03648087
0.003408359
-0.03678529
0.001966472
-0.03698238
0.001152565
-0.03705919
0.0005756368
-0.03706806
0.00021913
-0.03682638
-0.0006893556
-0.03651846
-0.0009798141
-0.03616841
-0.001148592
-0.03572156
-0.00147035
-0.03527092
-0.001539991
-0.03469845
-0.001943976
-0.03406721
-0.002184629
-0.03331922
-0.002589633
-0.0325296
-0.002745127
-0.0317279
-0.00281009
-0.03081653
-0.003188679
-0.02986465
-0.003335585
-0.02891299
-0.003352472
-0.02783195
-0.003813522
-0.02670904
-0.003956398
-0.02553789
-0.004134349
-0.02435675
-0.004177956
-0.02314608
-0.004291461
-0.02182263
-0.004672936
-0.02053034
-0.004587855
-0.01915329
-0.004874057
-0.01774294
-0.005003333
-0.01632313
-0.005029794
-0.01489565
-0.005065275
-0.01339871
-0.005302833
-0.01189583
-0.005321184
-0.01037696
-0.005369561
-0.008838631
-0.005451154
-0.007298373
-0.005441749
-0.005795823
-0.005310596
-0.004225317
-0.005551036
-0.002684004
-0.005443375
-0.001173135
-0.005352096
0.0003960257
-0.005674544
0.002094064
-0.006171429
0.003719768
-0.005807244
0.005312083
-0.005648141
0.006865121
-0.005525592
0.008384497
-0.005404166
0.009906897
-0.005409708
0.01138964
-0.00527073
0.01290355
-0.00536829
0.01436891
-0.005218013
0.01577385
-0.0049804
0.01719412
-0.005026709
0.0185834
-0.004940147
0.01993299
-0.004779612
0.02128541
-0.004772228
0.02260301
-0.004675215
0.0238166
-0.004288706
0.02503263
-0.004284882
0.02621354
-0.004171377
0.02731228
-0.003879951
0.02842619
-0.003912203
0.02942785
-0.003525514
0.03038979
-0.00337431
0.03127596
-0.003101598
0.03208006
-0.002807759
0.03289255
-0.002820978
0.03362678
-0.002558417
0.03429845
-0.002308745
0.03488706
-0.002025887
0.03540569
-0.001761314
0.0358821
-0.001588558
0.03623762
-0.001180277
0.03659392
-0.001135547
0.03686064
-0.0008104698
0.03692628
-3.465861e-05
0.03686802
0.0004762058
0.03673247
0.0009455895
0.03651944
0.00171691
0.03619313
0.003213947
0.03610751
0.005896436
0.03614005
0.009115945
0.03638561
0.01030767
0.03473504
0.02064656
0.02782509
0.03760276
0.02098086
0.02896141
0.01969204
0.001714661
0.02253502
-0.01464764
0.02450814
-0.01434133
0.02488719
-0.005401513
0.02367075
0.001672997
0.02067445
0.004080792
0.01580949
0.001601724
0.009157074
0.004189283
0.0007566523
0.0266212
-0.004693315
0.02612199
-0.008742666
0.01586011
-0.01049834
0.006750938
-0.01091547
0.001365697
-0.008265244
-0.009341959
-0.003940752
-0.01667515
-0.0002726857
-0.01609924
0.002992711
-0.0145561
0.005641379
-0.01033066
0.007022534
-0.004245127
0.007555535
-0.0008111808
0.007606663
0.000498726
0.007370483
0.002432161
0.0059838
0.01010671
0.002957698
0.01588094
0.0007864158
0.007085695
-0.0001387775
-0.0003490302
-0.001678015
0.001934686
-0.003347172
0.003727663
-0.005021275
0.004322137
-0.006292675
0.003569212
-0.006641233
0.001165048
-0.0062746
-0.0009482395
-0.005393519
-0.002602011
-0.00187502
-0.004451345
0.005326147
-0.0001331547
-0.005154564
0.006144941
-0.007373771
0.008698893
-0.008135562
0.004790319
-0.006692765
-0.004654903
-0.005158762
-0.01231539
-0.0046564
-0.0129492
-0.003949741
-0.01433016
-0.004656515
-0.002849382
-0.006354138
0.01384968
-0.005790975
0.009210288
-0.00307974
-0.006225123
0.001047613
-0.01613521
0.005451028
-0.01660333
0.00804517
-0.009727135
0.009151152
-0.003702715
0.00785343
0.005594029
0.005427033
0.01335236
0.002714612
0.01785824
0.001500123
0.006778777
0.003713473
-0.01564765
0.005334557
-0.01845182
0.006829969
-0.01472034
0.009414178
-0.01390995
0.01072709
-0.009645183
0.01156709
-0.006063514
0.006228086
0.03519687
-0.006871364
0.06531513
-0.02232859
0.03875961
-0.03144081
0.0124541
-0.03606633
0.007300667
-0.03887188
-0.001492271
-0.04145198
-0.009938213
-0.04441116
-0.01179185
-0.04688136
0.00521442
-0.04625887
0.02918037
-0.04345404
0.03097617
-0.04248889
0.0168254
-0.0430584
0.01082635
-0.04359929
0.006921397
-0.0440808
0.003889864
-0.04441015
0.00229582
-0.04463297
0.001375392
-0.04465564
0.0005983079
-0.04464175
0.0002052335
-0.0443201
-0.001011006
-0.04393668
-0.001363233
-0.04349693
-0.001588338
-0.04293214
-0.002035142
-0.04238973
-0.002082401
-0.04168667
-0.002647037
-0.04092337
-0.002947927
-0.04001513
-0.003497876
-0.03905702
-0.003703232
-0.03809296
-0.003774152
-0.03699044
-0.004291194
-0.03584291
-0.004483122
-0.03470312
-0.004492261
-0.03340356
-0.005113082
-0.03204911
-0.005310847
-0.03064326
-0.005540202
-0.02922572
-0.005595498
-0.02777699
-0.005740191
-0.02618212
-0.006267803
-0.02464051
-0.006129466
-0.02298538
-0.006529187
-0.02129537
-0.006693345
-0.01959422
-0.006730943
-0.01788666
-0.006772836
-0.01609305
-0.00709644
-0.01429436
-0.007119873
-0.01246627
-0.007197657
-0.01061844
-0.007298979
-0.008755988
-0.007304202
-0.006949967
-0.007116617
-0.005054025
-0.007446977
-0.003184487
-0.007312914
-0.001362758
-0.007173825
0.0005004779
-0.00753778
0.002512511
-0.008183462
0.004462216
-0.007756949
0.006365821
-0.007551745
0.008221023
-0.007380795
0.0100405
-0.007223647
0.01186689
-0.007236092
0.01364494
-0.007048783
0.01546891
-0.007192262
0.01722088
-0.006969976
0.01891214
-0.006671666
0.0206275
-0.006742062
0.0222889
-0.006601551
0.02390831
-0.006399022
0.02554748
-0.006411394
0.02712582
-0.006253556
0.02857964
-0.00574253
0.03004416
-0.0057494
0.0314637
-0.005590913
0.03277883
-0.005195088
0.03412192
-0.00525529
0.03532717
-0.004730763
0.03648507
-0.004532217
0.03755022
-0.00416674
0.03852152
-0.003779064
0.03950874
-0.003808201
0.04039149
-0.003441161
0.04121352
-0.003130778
0.0419264
-0.002738771
0.04256364
-0.002398551
0.04315137
-0.002176286
0.04359748
-0.001626386
0.04404158
-0.001579647
0.0443786
-0.001147495
0.0444977
-0.0001537561
0.04447901
0.0004948993
0.04434773
0.001076864
0.04413003
0.00193461
0.04375599
0.00358799
0.04353566
0.006116769
0.04315592
0.009495679
0.04265422
0.01080937
0.0437316
0.01956919
0.04374234
0.03759202
0.04095058
0.03175317
0.03838065
0.004284593
0.03758506
-0.01385206
0.03690502
-0.01366128
0.03578705
-0.004283546
0.03385889
0.003601158
0.03012584
0.007813847
0.02322805
0.008499509
0.01298463
0.0144327
0.002881133
0.0367247
-0.003252078
0.0322552
-0.008235335
0.02084337
-0.01032348
0.008839086
-0.01120073
0.00224294
-0.008094517
-0.01244817
-0.003014306
-0.02175536
0.0009209431
-0.02003449
0.003784645
-0.0174198
0.006123748
-0.01266977
0.007543898
-0.005665276
0.008430894
-0.001698177
0.008830054
9.956524e-05
0.008647793
0.002614422
0.00787767
0.01087683
0.005995868
0.01776274
0.003266413
0.00981515
0.0006348257
0.002282557
-0.001999459
0.004568971
-0.004462722
0.006190926
-0.006549416
0.006408832
-0.007860469
0.004880265
-0.007947255
0.001251834
-0.007344464
-0.001551031
-0.006238958
-0.003707517
-0.002787831
-0.004390305
0.005788971
-0.001531821
-0.002881588
0.004636224
-0.004457886
0.01027519
-0.005973133
0.006305566
-0.004577208
-0.006050829
-0.004114375
-0.01277822
-0.005433668
-0.01162991
-0.006842804
-0.01292103
-0.00904455
-0.0006476355
-0.009378892
0.01418402
-0.007313868
0.007145264
-0.003982018
-0.009556973
0.001524768
-0.02164199
0.007033842
-0.02211241
0.010346
-0.01303929
0.01181291
-0.005169623
0.01014388
0.007263056
0.006959072
0.01653717
0.004227094
0.02059021
0.003417384
0.007588488
0.004165784
-0.01639605
0.003742884
-0.01802892
0.005146427
-0.01612388
0.008252516
-0.01701604
0.008569345
-0.009962012
0.008222833
-0.005717002
0.002523851
0.04089586
-0.01167829
0.07951728
-0.02824193
0.05532324
-0.03789175
0.02210393
-0.04265327
0.01206219
-0.04639387
0.002248332
-0.05039584
-0.005936247
-0.05516252
-0.007025168
-0.05788927
0.007941164
-0.05529899
0.02659008
-0.05149811
0.0271753
-0.05119961
0.01652691
-0.05174689
0.01137362
-0.05222822
0.007402723
-0.05273844
0.004400088
-0.05309615
0.002653524
-0.05339775
0.001676996
-0.05341852
0.0006190804
-0.05347992
0.00026663
-0.05306199
-0.001428931
-0.05262331
-0.001801915
-0.05211471
-0.002096942
-0.05141827
-0.002731577
-0.05080584
-0.002694834
-0.04994975
-0.003503126
-0.0490533
-0.003844385
-0.04796547
-0.004585701
-0.04681066
-0.004858045
-0.04566801
-0.004916801
-0.04435155
-0.005607655
-0.04297501
-0.005859663
-0.0416078
-0.00585947
-0.04006053
-0.006660353
-0.03843933
-0.006932046
-0.03675678
-0.007222748
-0.03503991
-0.007312366
-0.03333152
-0.007448591
-0.03140035
-0.008198964
-0.02956808
-0.007961741
-0.02757186
-0.008525409
-0.02555155
-0.008713653
-0.0235203
-0.008762193
-0.02144863
-0.008844511
-0.0193196
-0.009225465
-0.01717779
-0.009261679
-0.01498691
-0.009388539
-0.01278971
-0.009496179
-0.01050643
-0.009587485
-0.008357333
-0.009265714
-0.00606701
-0.0097373
-0.003789249
-0.009590675
-0.001586187
-0.009376887
0.000634176
-0.009758144
0.003021933
-0.01057122
0.005363065
-0.01009808
0.007608603
-0.009797283
0.009833502
-0.009605694
0.01202632
-0.009416463
0.01421181
-0.009421586
0.01634309
-0.00918006
0.01855753
-0.0094067
0.02065893
-0.009071379
0.02268493
-0.008697663
0.02474544
-0.008802575
0.02675393
-0.008610044
0.02870074
-0.008345831
0.03065831
-0.008368963
0.03255558
-0.008150823
0.03429204
-0.007478996
0.0360462
-0.007503556
0.03772758
-0.00727229
0.0393176
-0.00678511
0.04093022
-0.006867912
0.04236474
-0.006165281
0.04376455
-0.005932025
0.0450233
-0.005425498
0.04618613
-0.004941894
0.04737473
-0.004996793
0.04841153
-0.00447796
0.04940655
-0.004125803
0.05023688
-0.003569103
0.05099942
-0.003161084
0.05170757
-0.002884442
0.0522136
-0.00213241
0.05274601
-0.002112058
0.05316334
-0.001564824
0.05326933
-0.0002597524
0.05320875
0.0005554791
0.05304214
0.001243478
0.05280172
0.002175036
0.05241479
0.003974914
0.05220016
0.006331396
0.05194616
0.009749687
0.0508996
0.01185592
0.05217977
0.01828902
0.05650877
0.03326302
0.0576996
0.03056235
0.05486608
0.007118111
0.05105266
-0.01003864
0.04809253
-0.01070115
0.04552086
-0.001711876
0.04291002
0.006211996
0.03890811
0.01181576
0.03125697
0.01615065
0.01887988
0.0268098
0.007101459
0.04850312
-0.0006510923
0.04000775
-0.006905708
0.02709799
-0.009800872
0.01173425
-0.01155821
0.004000281
-0.007742557
-0.01626382
-0.001733175
-0.02776475
0.002592971
-0.02436064
0.00518158
-0.02000841
0.006924224
-0.01441241
0.008120274
-0.006861326
0.009340798
-0.002918701
0.01005567
-0.0006153102
0.009952241
0.002717854
0.009523636
0.01130543
0.008358864
0.01892752
0.00524928
0.01292473
0.001144435
0.006387403
-0.002621355
0.00833476
-0.005854272
0.009423843
-0.008315577
0.008870137
-0.009481174
0.006045861
-0.009013282
0.0007839421
-0.008228834
-0.002335478
-0.006853003
-0.005083347
-0.003851863
-0.003735915
0.005692551
-0.003488456
-0.0002272956
0.001127604
0.0004640359
0.00958386
-0.0007950637
0.007564666
-0.0003588061
-0.006487086
-0.002076248
-0.01106078
-0.005174471
-0.008531689
-0.008743704
-0.009351795
-0.01202949
0.002638153
-0.01179062
0.01394515
-0.009041492
0.00439614
-0.004862704
-0.01373576
0.002166419
-0.02867112
0.009168604
-0.02911459
0.01338462
-0.01725531
0.01529449
-0.007079489
0.01314525
0.009412295
0.009349791
0.02033263
0.005903358
0.02403665
0.003769955
0.009721891
0.001702444
-0.01432854
-0.0005816821
-0.01574479
0.001572867
-0.01827843
0.005621269
-0.02106444
0.003655131
-0.007995875
-7.769017e-06
-0.002054102
-0.005726591
0.04661468
-0.02010456
0.09389525
-0.03614088
0.07135957
-0.04512005
0.0310831
-0.05007075
0.01701288
-0.05471122
0.0068888
-0.05904897
-0.001598494
-0.06419071
-0.001883428
-0.06705286
0.01080331
-0.06491468
0.02445191
-0.06194902
0.02420963
-0.06196288
0.01654077
-0.06235135
0.0117621
-0.06290726
0.007958629
-0.06347088
0.00496371
-0.06378593
0.002968575
-0.06420435
0.002095413
-0.06410761
0.000522339
-0.06412822
0.0002872443
-0.06368491
-0.00187225
-0.06312613
-0.002360694
-0.0625744
-0.002648673
-0.06165178
-0.00365419
-0.06096227
-0.003384352
-0.05991905
-0.004546344
-0.05887105
-0.004892382
-0.05754471
-0.005912036
-0.05612703
-0.00627573
-0.05477992
-0.006263907
-0.0532317
-0.007155882
-0.05151578
-0.007575584
-0.04988361
-0.007491631
-0.04805445
-0.008489517
-0.0461292
-0.008857293
-0.04407392
-0.009278032
-0.0419946
-0.009391688
-0.040043
-0.009400184
-0.03764005
-0.01060191
-0.03549532
-0.01010648
-0.03302687
-0.01099385
-0.0306667
-0.01107383
-0.02823317
-0.01119572
-0.0257143
-0.01136338
-0.0232075
-0.01173227
-0.02061961
-0.01184956
-0.01798779
-0.01202036
-0.01541467
-0.0120693
-0.01262251
-0.01237964
-0.01010856
-0.01177967
-0.007297516
-0.01254834
-0.004538465
-0.01234973
-0.001863888
-0.01205146
0.0008179201
-0.01243995
0.003684457
-0.01343776
0.006393592
-0.01280722
0.00904325
-0.01244694
0.01174872
-0.01231116
0.01441651
-0.01208426
0.0170465
-0.01205157
0.01957445
-0.01170801