/*--------------------------------*- C++ -*----------------------------------*\
| =========                 |                                                 |
| \\      /  F ield         | OpenFOAM: The Open Source CFD Toolbox           |
|  \\    /   O peration     | Version:  2406                                  |
|   \\  /    A nd           | Website:  www.openfoam.com                      |
|    \\/     M anipulation  |                                                 |
\*---------------------------------------------------------------------------*/
FoamFile
{
    version     2.0;
    format      ascii;
    arch        "LSB;label=32;scalar=64";
    class       volScalarField;
    location    "2.12";
    object      p;
}
// * * * * * * * * * * * * * * * * * * * * * * * * * * * * * * * * * * * * * //

dimensions      [0 2 -2 0 0 0 0];

internalField   nonuniform List<scalar> 
217010
(
-62.71537
-21.87477
-30.82294
-30.52389
-27.00089
-26.35831
-28.81215
-30.15082
-31.68083
-33.3927
-34.42449
-34.59123
-34.85164
-35.11443
-35.64817
-37.59102
-42.32236
-49.63174
-57.89625
-63.45724
-64.28482
-60.42877
-59.05488
-59.9531
-57.65264
-61.35786
-72.09141
-90.49314
-98.52471
-89.84969
-70.83298
-53.61486
-56.01435
-65.01985
-77.32175
-85.44653
-83.92951
-81.14882
-82.40439
-83.59763
-83.2323
-81.23684
-77.89699
-73.76395
-69.60562
-66.20919
-64.43108
-65.30668
-65.99583
-77.12415
-14.37561
-19.59809
-19.47802
-21.42892
-23.32458
-25.31251
-27.36152
-29.01767
-30.07294
-30.7083
-31.09079
-31.45696
-31.96997
-32.56612
-33.42223
-34.43252
-35.68497
-36.90747
-36.6805
-36.53529
-36.83295
-37.40097
-38.31454
-39.08155
-39.53272
-40.0987
-41.17277
-42.29361
-43.36314
-44.48647
-45.69582
-46.87909
-48.05325
-49.33918
-50.75774
-52.2267
-53.72013
-55.28179
-57.11039
-59.08365
-61.32805
-64.23628
-67.50324
-70.58364
-73.45668
-76.79146
-80.05805
-81.45492
-82.2656
-84.55544
-88.06037
-91.98411
-96.20514
-100.8047
-105.6643
-110.8821
-116.4715
-122.3552
-128.7646
-135.721
-143.0206
-150.5351
-158.1045
-165.8531
-173.4786
-180.5626
-187.2122
-193.1691
-197.645
-200.5322
-201.6512
-200.5689
-196.7792
-189.8333
-180.3776
-171.5878
-165.4976
-160.8811
-168.2317
-195.0765
-207.8001
-179.5093
-144.1941
-143.2471
-153.7781
-157.5176
-165.056
-174.9407
-178.1497
-175.5603
-169.3109
-159.9265
-149.205
-139.5461
-131.5584
-125.4615
-122.2095
-123.9945
-122.3862
-141.0996
-92.05411
-94.36124
-94.00566
-99.71044
-106.0699
-114.3411
-125.5434
-138.3477
-151.3042
-165.6964
-179.4251
-189.7721
-196.8172
-203.0621
-208.1658
-209.8409
-207.8754
-199.88
-184.1809
-166.8875
-159.6438
-163.8255
-173.8638
-178.0097
-176.6409
-171.7169
-164.0246
-157.4326
-156.3188
-159.062
-167.6653
-176.7459
-180.5519
-177.8774
-172.576
-167.3417
-164.4401
-162.6539
-161.571
-159.2291
-156.4407
-155.5292
-154.919
-159.0275
-153.2276
-156.2996
-163.2583
-165.3811
-154.8397
-241.6134
-129.0908
-112.2274
-94.38986
-83.93709
-75.16066
-67.96844
-61.81657
-56.29835
-51.50623
-47.1954
-43.29518
-39.7456
-36.41569
-33.28053
-30.35475
-27.6557
-25.14067
-22.73082
-20.43249
-18.2417
-16.15398
-14.17934
-12.31261
-10.48513
-8.705695
-6.968354
-5.306042
-3.739246
-2.228228
-0.7430012
0.7198259
2.150615
3.513273
4.835085
6.142424
7.42153
8.684675
9.931014
11.17797
12.36707
13.57601
14.72727
15.8681
16.98986
18.10385
19.19454
20.26344
21.33235
22.4174
23.49758
24.55132
25.58453
26.61216
27.66568
28.72789
29.77255
30.81988
31.87409
32.92378
33.97779
35.03104
36.08948
37.17668
38.28606
39.35431
40.42879
41.59716
42.60526
42.63996
41.41053
37.05777
60.84394
58.84795
58.95164
58.21561
57.45475
56.78278
56.11124
55.45271
54.84334
54.24662
53.60258
52.94385
52.30619
51.69734
51.09737
50.49409
49.88312
49.27349
48.68372
48.09971
47.50295
46.9067
46.32058
45.72362
45.13344
44.52765
43.89809
43.28355
42.68761
42.08918
41.47162
40.81973
40.20053
39.55184
38.88816
38.22659
37.56362
36.8734
36.17229
35.47365
34.76059
34.01271
33.23186
32.45004
31.67535
30.87557
30.03742
29.17415
28.27624
27.34661
26.39346
25.40607
24.40877
23.34897
22.22478
21.06802
19.84242
18.56383
17.19631
15.7297
14.18621
12.54561
10.73592
8.771678
6.543643
4.141471
1.436381
-1.828331
-5.296545
-11.47291
-13.56651
60.09023
58.90848
58.98471
58.30779
57.54524
56.863
56.18636
55.52203
54.90683
54.3082
53.66375
53.0025
52.36045
51.74766
51.14505
50.5398
49.92678
49.31446
48.72213
48.13615
47.53771
46.93957
46.35166
45.75299
45.16132
44.55453
43.92368
43.30727
42.7093
42.10969
41.49134
40.83758
40.21826
39.56764
38.90262
38.23993
37.57597
36.88455
36.18246
35.48277
34.76875
34.01959
33.23745
32.45456
31.67902
30.87792
30.0386
29.17433
28.27499
27.3437
26.38884
25.39964
24.40126
23.33844
22.21168
21.05273
19.82357
18.54227
17.17001
15.69856
14.15089
12.50476
10.68871
8.717139
6.471234
4.058067
1.333458
-1.950002
-5.494518
-11.61374
-14.77711
-131.6963
-112.7811
-94.94567
-84.2755
-75.43217
-68.1815
-61.99309
-56.43056
-51.61931
-47.29247
-43.37592
-39.8149
-36.47513
-33.33027
-30.39513
-27.6881
-25.16805
-22.75303
-20.44961
-18.25435
-16.1627
-14.1839
-12.31476
-10.48499
-8.703151
-6.963354
-5.298211
-3.72946
-2.216485
-0.7291706
0.7358331
2.168775
3.533494
4.856972
6.166472
7.447498
8.712947
9.961779
11.21164
12.4019
13.61348
14.76663
15.90961
17.03395
18.15013
19.2431
20.31459
21.38668
22.47484
23.55758
24.6134
25.64947
26.68102
27.7386
28.80445
29.85248
30.90381
31.96205
33.01586
34.07398
35.13183
36.19663
37.29039
38.40186
39.47281
40.55536
41.71223
42.65018
42.57596
41.02767
39.82928
-94.27215
-94.26142
-93.79506
-99.1088
-105.3456
-113.4437
-124.4775
-137.2128
-150.1757
-164.5798
-178.4705
-189.0624
-196.2902
-202.656
-207.9067
-209.8124
-208.1456
-200.5351
-184.9988
-167.4298
-159.6523
-163.6163
-173.7075
-178.0221
-176.7079
-171.8726
-164.1602
-157.4492
-156.2983
-159.0112
-167.6442
-176.7632
-180.5995
-177.9081
-172.5801
-167.3169
-164.4175
-162.6305
-161.5557
-159.2043
-156.4229
-155.5224
-154.9602
-159.0326
-153.2385
-156.478
-163.5166
-165.186
-156.8448
-224.8762
-16.31087
-19.4085
-19.34649
-21.18431
-23.06308
-25.06707
-27.14618
-28.86233
-29.98438
-30.6533
-31.04813
-31.41017
-31.91701
-32.50511
-33.35042
-34.34857
-35.60327
-36.89055
-36.69829
-36.53185
-36.80952
-37.36166
-38.26673
-39.05004
-39.51246
-40.06765
-41.1303
-42.25095
-43.32273
-44.44566
-45.65594
-46.84192
-48.01752
-49.30341
-50.72392
-52.19357
-53.68882
-55.25044
-57.08284
-59.05652
-61.29812
-64.1957
-67.45907
-70.54349
-73.42504
-76.77081
-80.0458
-81.45794
-82.26673
-84.55935
-88.06664
-91.99297
-96.21937
-100.8268
-105.6936
-110.9231
-116.5241
-122.4191
-128.8472
-135.8234
-143.1416
-150.674
-158.2586
-166.0293
-173.6668
-180.7519
-187.3937
-193.369
-197.8148
-200.6613
-201.7213
-200.589
-196.757
-189.7353
-180.1329
-171.2325
-165.257
-160.9412
-169.1354
-195.9777
-207.4109
-177.878
-143.5604
-143.737
-154.5313
-158.0537
-165.764
-175.4262
-178.1316
-175.1262
-168.4978
-158.9223
-148.1914
-138.6364
-130.8181
-124.9947
-122.165
-124.0545
-123.6415
-135.9899
-56.47197
-22.80824
-30.82945
-30.6087
-27.07169
-26.34663
-28.77289
-30.11426
-31.64942
-33.37334
-34.41972
-34.5974
-34.8637
-35.12572
-35.65565
-37.61034
-42.34337
-49.66575
-57.9598
-63.56386
-64.38347
-60.43382
-59.05114
-59.94495
-57.6806
-61.50312
-72.43326
-90.9823
-98.69507
-89.71162
-70.30207
-53.26039
-56.34486
-65.55268
-77.93221
-85.79326
-83.89637
-81.18442
-82.53584
-83.64815
-83.11862
-80.98716
-77.55362
-73.38382
-69.2573
-65.96499
-64.39437
-65.38721
-66.78433
-69.67778
-49.11873
-23.23853
-30.73582
-30.61606
-27.17093
-26.3605
-28.73371
-30.09427
-31.64172
-33.37132
-34.41664
-34.63021
-34.90431
-35.16002
-35.69091
-37.66756
-42.4057
-49.74378
-58.05847
-63.72922
-64.67035
-60.64106
-59.1094
-59.97544
-57.73837
-61.68789
-72.81062
-91.37383
-98.93172
-89.92289
-70.42246
-53.21695
-56.75334
-66.05093
-78.22278
-85.70941
-83.90496
-81.42339
-82.78944
-83.76873
-83.20198
-80.9815
-77.47273
-73.24989
-69.10733
-65.85599
-64.4261
-65.50871
-66.87379
-66.08437
-17.63833
-19.40935
-19.3424
-21.11749
-23.00046
-25.00388
-27.11199
-28.856
-29.96469
-30.65225
-31.04876
-31.40598
-31.90873
-32.48522
-33.32703
-34.33212
-35.58812
-36.90208
-36.71872
-36.52869
-36.7941
-37.33774
-38.25083
-39.04002
-39.50624
-40.0525
-41.11264
-42.23445
-43.30604
-44.42961
-45.64143
-46.82758
-48.00126
-49.28912
-50.71083
-52.18056
-53.67665
-55.23671
-57.07694
-59.05421
-61.30307
-64.17965
-67.44796
-70.55624
-73.42532
-76.76203
-80.06651
-81.47526
-82.27971
-84.57842
-88.08733
-92.01239
-96.23895
-100.8495
-105.7159
-110.9531
-116.5594
-122.4571
-128.8988
-135.8856
-143.2109
-150.75
-158.337
-166.119
-173.7521
-180.8269
-187.4899
-193.4183
-197.8349
-200.6642
-201.7545
-200.6119
-196.8152
-189.9773
-180.5953
-171.5072
-165.209
-160.6998
-169.22
-197.1327
-208.1746
-177.4359
-143.385
-144.3318
-154.6238
-158.4982
-166.7875
-176.2332
-178.4408
-175.1153
-168.4308
-158.5954
-147.7375
-138.2044
-130.4637
-124.7536
-122.2114
-124.2169
-123.9079
-132.4183
-95.1217
-94.35772
-93.67272
-98.77918
-104.9828
-112.969
-123.9855
-136.7567
-149.6825
-164.2339
-178.2979
-189.0422
-196.2852
-202.7225
-208.0952
-210.0436
-208.586
-201.5982
-186.5991
-168.4045
-159.7022
-163.352
-173.6493
-178.0657
-176.7643
-172.0876
-164.3271
-157.4276
-156.2751
-159.0092
-167.718
-176.906
-180.7429
-178.0177
-172.6421
-167.3046
-164.406
-162.6144
-161.5574
-159.2114
-156.4369
-155.5353
-154.9919
-159.093
-153.2904
-156.7285
-163.7117
-164.9319
-157.569
-207.4415
-131.2435
-113.1336
-95.20677
-84.45177
-75.56398
-68.28171
-62.06795
-56.50903
-51.66558
-47.33468
-43.40995
-39.84482
-36.50244
-33.35292
-30.41364
-27.70193
-25.1822
-22.76489
-20.45937
-18.26198
-16.16916
-14.18719
-12.31851
-10.48733
-8.704026
-6.962785
-5.295
-3.726369
-2.213551
-0.7256804
0.7401282
2.175043
3.540465
4.862695
6.173364
7.454624
8.722232
9.971955
11.2198
12.41186
13.62115
14.77632
15.92059
17.0447
18.16175
19.25514
20.32631
21.39803
22.48798
23.57274
24.62833
25.66443
26.69501
27.75405
28.82288
29.87099
30.92254
31.98316
33.03738
34.0968
35.15647
36.22301
37.31744
38.43353
39.50807
40.59201
41.75325
42.67575
42.54827
40.92099
40.99601
59.60098
58.88177
58.95813
58.32628
57.57183
56.88642
56.20488
55.53772
54.9232
54.32652
53.68008
53.0173
52.37322
51.75994
51.15701
50.55187
49.93768
49.3237
48.73182
48.1459
47.54619
46.94781
46.36029
45.76012
45.17035
44.56256
43.92909
43.31271
42.71525
42.11584
41.49509
40.84365
40.22306
39.57401
38.90729
38.24427
37.58039
36.88731
36.18512
35.48594
34.77221
34.02183
33.23826
32.45515
31.68045
30.87847
30.03859
29.17403
28.27331
27.34115
26.38542
25.3954
24.39813
23.33302
22.20507
21.04649
19.81461
18.53386
17.15842
15.68521
14.13674
12.48905
10.67066
8.68349
6.444887
4.021949
1.288157
-2.00866
-5.578114
-11.72561
-14.94422
58.91025
58.82553
58.94765
58.39733
57.66161
56.97006
56.28207
55.61139
54.99335
54.39449
53.74601
53.08184
52.43456
51.81784
51.21207
50.60444
49.98801
49.37117
48.77756
48.18885
47.58652
46.98652
46.39732
45.79441
45.20445
44.59414
43.95767
43.34123
42.74195
42.14127
41.51822
40.87099
40.24105
39.59363
38.92419
38.26052
37.59619
36.90011
36.19747
35.49783
34.78349
34.03045
33.24468
32.46088
31.68677
30.88253
30.04139
29.17605
28.27286
27.33933
26.38203
25.38988
24.3939
23.3236
22.19283
21.03411
19.79636
18.5155
17.13311
15.65509
14.10358
12.45123
10.62279
8.628601
6.384252
3.943565
1.190381
-2.120933
-5.76566
-11.82446
-15.21047
-131.3378
-113.4414
-95.68592
-84.75101
-75.81942
-68.477
-62.22236
-56.63433
-51.77691
-47.42636
-43.48384
-39.90934
-36.55838
-33.39826
-30.4498
-27.72776
-25.2061
-22.78293
-20.47243
-18.27032
-16.17473
-14.18666
-12.31875
-10.48467
-8.698328
-6.954413
-5.281161
-3.7112
-2.197332
-0.708167
0.7596651
2.198662
3.567389
4.888976
6.202756
7.485462
8.757649
10.01005
11.25463
12.46433
13.66666
14.82389
15.97128
17.09841
18.21752
19.31462
20.38869
21.46368
22.55651
23.64498
24.70321
25.74316
26.77743
27.83927
28.91354
29.96484
31.02001
32.08427
33.14235
34.2049
35.26906
36.33997
37.43447
38.55021
39.62615
40.70374
41.83642
42.69153
42.46672
41.03054
42.69987
-97.13904
-94.51803
-93.55708
-98.29174
-104.3862
-112.1996
-123.0885
-135.7587
-148.6397
-163.2809
-177.4322
-188.3174
-195.6886
-202.2732
-207.7259
-209.8536
-208.986
-202.802
-188.8351
-170.3241
-159.9671
-162.8251
-173.5709
-178.1675
-176.8497
-172.4584
-164.6106
-157.4226
-156.3092
-159.1257
-167.9507
-177.2326
-181.0435
-178.2553
-172.7809
-167.3081
-164.3857
-162.5784
-161.5502
-159.2118
-156.4574
-155.5482
-155.0539
-159.1743
-153.3924
-157.0958
-164.0396
-164.5773
-159.5099
-195.667
-19.36601
-19.44137
-19.28107
-20.89228
-22.74285
-24.75143
-26.871
-28.65204
-29.8818
-30.61306
-31.01673
-31.3664
-31.86285
-32.40788
-33.2439
-34.27934
-35.5953
-36.94724
-36.75299
-36.52218
-36.7657
-37.2903
-38.19199
-39.01316
-39.49782
-40.03338
-41.08192
-42.19868
-43.26998
-44.39267
-45.60541
-46.79241
-47.9667
-49.25745
-50.68257
-52.15294
-53.65064
-55.20869
-57.05895
-59.03421
-61.27649
-64.15066
-67.44997
-70.62049
-73.46651
-76.76317
-80.0981
-81.50151
-82.30608
-84.61391
-88.12175
-92.04142
-96.26588
-100.8812
-105.7466
-110.9983
-116.6148
-122.5176
-128.9866
-135.9984
-143.3431
-150.9018
-158.5018
-166.3194
-173.9656
-181.0441
-187.7222
-193.6611
-198.0798
-200.9228
-201.9036
-200.7196
-196.9635
-190.3793
-181.5317
-172.6032
-165.6043
-160.8403
-169.8224
-198.4758
-209.1623
-176.906
-143.2379
-144.578
-154.6051
-159.3253
-168.4406
-177.3356
-178.7223
-174.7214
-167.6143
-157.6699
-146.8116
-137.3953
-129.8684
-124.4589
-122.3478
-124.4561
-124.6794
-130.5039
-43.16576
-24.2454
-30.38126
-30.53784
-27.30747
-26.3624
-28.64849
-30.04266
-31.6194
-33.32371
-34.38894
-34.68487
-34.97647
-35.22639
-35.76689
-37.77817
-42.52551
-49.88201
-58.22397
-63.97671
-65.16199
-61.18452
-59.24167
-59.9863
-57.83164
-61.96831
-73.36149
-92.1812
-99.51888
-90.70188
-71.33197
-53.3059
-57.22195
-66.54445
-78.448
-85.52269
-83.88231
-81.82992
-83.10178
-83.84331
-83.06024
-80.7562
-77.19031
-72.95577
-68.85717
-65.72153
-64.44536
-65.53618
-66.713
-62.4004
-38.98202
-25.22346
-29.92165
-30.45169
-27.518
-26.33293
-28.51586
-29.98192
-31.61161
-33.26954
-34.34264
-34.75422
-35.08614
-35.33874
-35.89879
-37.96409
-42.73272
-50.11078
-58.48706
-64.31792
-65.85527
-62.10961
-59.45101
-59.96309
-57.94196
-62.37197
-74.13361
-93.36206
-100.469
-92.1396
-73.07284
-53.47859
-57.57699
-66.94562
-78.3713
-85.08521
-83.84296
-82.35696
-83.53825
-84.12153
-83.21148
-80.71209
-77.0298
-72.73382
-68.64255
-65.59881
-64.36333
-65.23419
-65.64405
-57.49918
-21.14396
-19.58955
-19.27821
-20.74983
-22.56211
-24.57452
-26.75281
-28.61974
-29.83597
-30.60644
-31.01894
-31.36041
-31.85761
-32.36813
-33.14907
-34.18415
-35.60276
-37.01714
-36.80321
-36.51558
-36.73247
-37.23767
-38.15622
-38.99589
-39.4944
-40.01919
-41.05579
-42.16767
-43.23817
-44.35977
-45.57589
-46.76355
-47.93481
-49.23056
-50.6598
-52.13217
-53.63305
-55.18603
-57.05328
-59.02044
-61.26005
-64.13697
-67.46122
-70.73909
-73.59844
-76.78644
-80.10068
-81.49488
-82.33681
-84.67171
-88.17604
-92.08423
-96.30374
-100.926
-105.7859
-111.0566
-116.6831
-122.5825
-129.0837
-136.1267
-143.4987
-151.0748
-158.6767
-166.5423
-174.185
-181.2407
-187.9623
-193.9001
-198.253
-201.0126
-202.0012
-200.8346
-197.1553
-190.8359
-182.5609
-174.1353
-166.9242
-161.7172
-171.3028
-200.4558
-210.4882
-176.2537
-142.5802
-143.8658
-153.8597
-160.7323
-170.884
-178.7972
-179.1088
-174.5801
-167.1318
-156.8913
-145.9373
-136.6185
-129.3223
-124.2759
-122.6513
-124.8436
-125.0615
-128.5296
-98.6389
-94.88677
-93.51284
-97.81573
-103.8082
-111.4577
-122.2168
-134.8389
-147.6763
-162.5141
-176.8865
-188.0155
-195.434
-202.2311
-207.994
-210.3267
-209.7498
-204.3003
-191.7184
-173.6198
-161.0249
-162.5423
-173.6937
-178.3572
-176.9331
-172.9485
-165.0386
-157.4887
-156.4579
-159.4246
-168.4615
-177.9003
-181.6486
-178.7288
-173.0603
-167.3235
-164.3689
-162.5315
-161.5529
-159.2127
-156.4673
-155.5288
-155.1249
-159.2541
-153.6478
-157.579
-164.5297
-164.3854
-161.6861
-187.4763
-131.2293
-113.5738
-96.09323
-85.01895
-76.05729
-68.65877
-62.37158
-56.76135
-51.8675
-47.51017
-43.55129
-39.97007
-36.61438
-33.44513
-30.48673
-27.75157
-25.23276
-22.80552
-20.49081
-18.2838
-16.18575
-14.18932
-12.32539
-10.4887
-8.700319
-6.954802
-5.274121
-3.704607
-2.192614
-0.7023181
0.7678486
2.212008
3.582634
4.900579
6.218058
7.500988
8.777546
10.02964
11.26919
12.47958
13.68773
14.84623
15.99564
17.12256
18.24337
19.34262
20.41673
21.49082
22.58666
23.67996
24.73831
25.77949
26.81309
27.87811
28.95992
30.01131
31.06763
32.13849
33.19894
34.26467
35.33367
36.41006
37.50656
38.63097
39.71576
40.79993
41.92507
42.70804
42.41169
41.34932
44.54398
58.17485
58.70467
58.90644
58.44004
57.72098
57.02808
56.33092
55.65414
55.03566
54.4401
53.78777
53.12069
52.46771
51.84875
51.24165
50.63374
50.01455
49.39363
48.80073
48.21181
47.60671
47.00584
46.41718
45.81023
45.22415
44.61171
43.97014
43.35375
42.75392
42.15406
41.52859
40.87767
40.25065
39.60521
38.93234
38.26839
37.60439
36.9048
36.20294
35.50436
34.79021
34.03371
33.24509
32.46189
31.68994
30.88274
30.04077
29.17555
28.26907
27.33417
26.37548
25.38135
24.38964
23.31174
22.17807
21.02084
19.77632
18.49889
17.10764
15.62563
14.07375
12.41925
10.58229
8.572413
6.327362
3.87197
1.101431
-2.224181
-5.929472
-11.85849
-15.49254
57.33181
58.48606
58.81516
58.46852
57.7961
57.10981
56.40157
55.72281
55.10776
54.51569
53.85774
53.19244
52.53604
51.91425
51.30375
50.69597
50.07434
49.4475
48.85398
48.26254
47.65326
47.05118
46.46262
45.84931
45.26784
44.65209
44.00382
43.3888
42.78721
42.18673
41.55602
40.91479
40.27748
39.63172
38.95526
38.29141
37.62598
36.91836
36.21628
35.51929
34.80779
34.04622
33.25033
32.46678
31.70027
30.88824
30.0442
29.18046
28.26929
27.33148
26.36869
25.37063
24.38919
23.30089
22.16398
21.0069
19.75108
18.48199
17.07633
15.58821
14.03385
12.37974
10.53097
8.502543
6.255134
3.783844
0.9912888
-2.345607
-6.108444
-11.87555
-15.84234
-131.114
-113.5326
-96.48194
-85.28936
-76.34049
-68.87925
-62.55121
-56.91031
-51.97804
-47.62016
-43.63379
-40.04186
-36.68449
-33.49916
-30.52289
-27.77137
-25.26564
-22.83238
-20.50927
-18.29219
-16.19027
-14.18295
-12.32682
-10.48521
-8.694325
-6.942616
-5.24861
-3.683655
-2.172552
-0.6754437
0.7976389
2.245051
3.618738
4.932576
6.256887
7.539217
8.821963
10.07493
11.31948
12.55384
13.74784
14.90605
16.06004
17.19036
18.3158
19.41914
20.49271
21.56999
22.67413
23.77612
24.83312
25.87729
26.91176
27.97985
29.07244
30.12387
31.1841
32.26076
33.31992
34.38719
35.46067
36.53915
37.62573
38.7494
39.83806
40.91363
42.01055
42.70555
42.42856
41.99738
46.28553
-100.6297
-95.50275
-93.594
-97.32805
-103.1738
-110.5715
-121.2725
-133.7784
-146.5389
-161.6067
-176.1843
-187.5613
-194.9445
-201.9317
-207.8423
-210.1491
-210.4157
-205.9558
-195.0843
-178.1968
-163.8175
-162.8259
-174.2972
-178.8934
-177.0816
-173.624
-165.6425
-157.6849
-156.8413
-159.9975
-169.4109
-179.1095
-182.7647
-179.6145
-173.6007
-167.3509
-164.363
-162.4568
-161.5369
-159.1975
-156.458
-155.4765
-155.2041
-159.3634
-154.2015
-158.3752
-165.0097
-164.1088
-163.1235
-179.1791
-23.04516
-19.91881
-19.33197
-20.61517
-22.31837
-24.31284
-26.529
-28.4006
-29.705
-30.59271
-31.03144
-31.37261
-31.88069
-32.30003
-32.98504
-34.03968
-35.59184
-37.10344
-36.87097
-36.50619
-36.68979
-37.17161
-38.08175
-38.97285
-39.49877
-40.00431
-41.0281
-42.13241
-43.20194
-44.32215
-45.54329
-46.73318
-47.8983
-49.19775
-50.63227
-52.11049
-53.61937
-55.16236
-57.05907
-59.01249
-61.2328
-64.12105
-67.472
-70.88541
-73.81274
-76.80027
-79.98515
-81.35161
-82.33516
-84.7448
-88.24912
-92.13733
-96.34971
-100.9832
-105.8351
-111.1359
-116.7779
-122.6719
-129.2054
-136.2743
-143.6945
-151.312
-158.9039
-166.8603
-174.5149
-181.5169
-188.2925
-194.2764
-198.5746
-201.3721
-202.3406
-201.1314
-197.5383
-191.5019
-183.7614
-175.9594
-169.2276
-164.4074
-174.3848
-203.3877
-211.5606
-174.3609
-140.7474
-141.7854
-152.5992
-162.7949
-173.8874
-180.4275
-179.4098
-174.1659
-166.4032
-155.9201
-144.8577
-135.7062
-128.77
-124.2382
-123.1331
-125.337
-125.6086
-126.3189
-35.61233
-25.88155
-29.5589
-30.61678
-27.80148
-26.24635
-28.30148
-29.90804
-31.61822
-33.22564
-34.3064
-34.8463
-35.23909
-35.50974
-36.11762
-38.25942
-43.05665
-50.44796
-58.87348
-64.77959
-66.7488
-63.39887
-59.69028
-59.67459
-57.98135
-62.82881
-75.15517
-95.06584
-102.0031
-94.43542
-75.84546
-53.62574
-57.6798
-67.33508
-78.33695
-84.69902
-83.93146
-83.02386
-84.06932
-84.38004
-83.28052
-80.66399
-76.87697
-72.52382
-68.44081
-65.47087
-64.09051
-64.38755
-63.34847
-52.11379
-32.5128
-26.1786
-29.45344
-30.71886
-28.13381
-26.04241
-28.03086
-29.82857
-31.64602
-33.19877
-34.28505
-34.96377
-35.4445
-35.77285
-36.49022
-38.70961
-43.48348
-50.85653
-59.35338
-65.37061
-67.82309
-64.93093
-59.79088
-58.97293
-57.83013
-63.19725
-76.32942
-97.17157
-104.2025
-97.60933
-79.51051
-53.80926
-57.36207
-67.57787
-78.35253
-84.56142
-84.30516
-83.96425
-84.87737
-84.94102
-83.59649
-80.70819
-76.75455
-72.31477
-68.2087
-65.27618
-63.53996
-62.96216
-59.93426
-46.92709
-25.18129
-20.66277
-19.53363
-20.55331
-22.07876
-24.0003
-26.30315
-28.32896
-29.69788
-30.60476
-31.06118
-31.41074
-31.95478
-32.26983
-32.86177
-33.89879
-35.55173
-37.17301
-36.95127
-36.49328
-36.64201
-37.09297
-38.00094
-38.95231
-39.51291
-39.97915
-40.98937
-42.08698
-43.15486
-44.27453
-45.50534
-46.69944
-47.8658
-49.17468
-50.60237
-52.08871
-53.59757
-55.13768
-57.0592
-59.02217
-61.23608
-64.08558
-67.48157
-71.05354
-74.05362
-76.74615
-79.66785
-80.96618
-82.26125
-84.80357
-88.3273
-92.19427
-96.40397
-101.0529
-105.883
-111.2391
-116.87
-122.8043
-129.4073
-136.4787
-143.8991
-151.6255
-159.1928
-167.2239
-174.972
-181.951
-188.6804
-194.7288
-198.9588
-201.7445
-202.6723
-201.5058
-198.0781
-192.4009
-185.2275
-178.1179
-172.338
-169.1246
-179.3962
-206.0055
-209.8947
-169.8753
-137.3069
-138.4135
-151.412
-165.6392
-177.5109
-182.4174
-180.3001
-173.7429
-165.5242
-154.668
-143.4682
-134.6239
-128.2315
-124.3604
-123.8
-125.943
-126.0357
-124.6164
-102.5917
-96.61557
-93.89161
-96.87845
-102.4227
-109.3172
-120.3446
-132.6012
-145.2555
-160.5893
-175.3936
-187.0532
-194.5198
-201.9223
-208.1291
-210.5559
-211.654
-208.0392
-198.8391
-183.7728
-168.9025
-164.4058
-176.0954
-179.9663
-177.1934
-174.2723
-166.3437
-157.9025
-157.5037
-161.2045
-171.1572
-181.1501
-184.6558
-181.209
-174.5662
-167.3819
-164.3952
-162.3193
-161.4345
-159.185
-156.4469
-155.4696
-155.4934
-159.4759
-154.6782
-159.8902
-165.913
-163.608
-163.0402
-170.1609
-130.6998
-113.2085
-96.79156
-85.52333
-76.67154
-69.10548
-62.71248
-57.05854
-52.11269
-47.74774
-43.70191
-40.11921
-36.7699
-33.54895
-30.55874
-27.80857
-25.32204
-22.85985
-20.524
-18.29256
-16.19763
-14.18602
-12.33397
-10.48929
-8.695774
-6.926583
-5.234732
-3.679255
-2.157605
-0.6589428
0.7994607
2.249392
3.644429
4.94965
6.280938
7.559801
8.8528
10.10998
11.35695
12.5732
13.77271
14.9364
16.10099
17.23305
18.3572
19.45844
20.53887
21.62345
22.72558
23.8251
24.88087
25.93572
26.97134
28.04158
29.14688
30.20272
31.26239
32.3412
33.40653
34.48646
35.56784
36.65185
37.72555
38.86469
39.98211
41.0417
42.08235
42.68911
42.61154
43.07872
47.9095
56.36693
58.08785
58.61456
58.43416
57.85277
57.19778
56.46997
55.78241
55.17272
54.58727
53.91208
53.24502
52.58508
51.96615
51.34867
50.73792
50.11494
49.48588
48.89688
48.30049
47.68455
47.08266
46.49447
45.87175
45.2998
44.67228
44.01841
43.40662
42.80634
42.21087
41.57113
40.91824
40.28747
39.63915
38.96009
38.30552
37.64513
36.92775
36.22478
35.52315
34.81608
34.05685
33.25428
32.46176
31.7037
30.89049
30.04023
29.17828
28.2669
27.32967
26.36088
25.34746
24.38037
23.27893
22.1502
20.99321
19.71471
18.46568
17.03903
15.55355
13.98689
12.33315
10.4769
8.433882
6.183221
3.695038
0.878115
-2.463072
-6.265026
-11.8157
-16.1644
55.42173
57.53737
58.30798
58.31436
57.87211
57.31168
56.57395
55.86579
55.27756
54.72893
54.05044
53.35628
52.66762
52.05798
51.45642
50.83129
50.18242
49.53848
48.97179
48.37502
47.74375
47.14752
46.5655
45.91579
45.39797
44.73354
44.05887
43.45775
42.83528
42.26422
41.61269
40.97988
40.36245
39.68545
38.96812
38.31737
37.66611
36.94768
36.26311
35.55346
34.81516
34.05849
33.2832
32.48044
31.70433
30.90545
30.053
29.1627
28.25394
27.32932
26.3823
25.35242
24.37635
23.22719
22.126
20.99472
19.65798
18.44622
16.9634
15.52509
13.94761
12.23618
10.37279
8.321214
6.067641
3.556963
0.6962448
-2.659383
-6.508765
-11.74473
-16.47757
-129.8311
-112.81
-97.33262
-85.93336
-77.21927
-69.30828
-62.9411
-57.33904
-52.37068
-47.85942
-43.75035
-40.26422
-36.87818
-33.59101
-30.65018
-27.8994
-25.33623
-22.82919
-20.53236
-18.2998
-16.24851
-14.21537
-12.30559
-10.51525
-8.675105
-6.898336
-5.265167
-3.637846
-2.10258
-0.6484578
0.7968671
2.324985
3.765105
4.992342
6.343247
7.616091
8.932108
10.1848
11.42108
12.62978
13.86789
15.05248
16.20554
17.33182
18.4389
19.57503
20.67854
21.73066
22.80642
23.95895
25.05254
26.09207
27.12316
28.17081
29.31818
30.38913
31.39723
32.52452
33.618
34.67529
35.74778
36.82976
37.88432
39.07194
40.23562
41.21825
42.18544
42.81286
43.24555
44.68432
49.23716
-104.8663
-98.11955
-94.42583
-96.63053
-101.712
-108.031
-119.2371
-131.2299
-143.725
-159.4609
-174.5807
-185.8227
-193.3249
-201.7155
-208.2214
-210.4243
-212.9032
-210.3413
-203.0011
-190.2888
-176.4754
-168.6257
-178.4862
-181.6343
-177.8029
-174.9279
-167.1543
-157.8814
-158.3117
-163.8094
-174.3298
-184.4471
-187.5824
-183.66
-176.2667
-167.4034
-164.3875
-161.9515
-161.3508
-158.9697
-156.3686
-155.6462
-156.124
-159.1252
-153.9501
-160.6759
-166.035
-162.6439
-161.0977
-161.3563
-26.84512
-21.62783
-19.83388
-20.50123
-21.85992
-23.60893
-25.90356
-28.00666
-29.49913
-30.6023
-31.06196
-31.44015
-32.12305
-32.31868
-32.80148
-33.79462
-35.42542
-37.17155
-37.04565
-36.49348
-36.59129
-37.00225
-37.89408
-38.83876
-39.4804
-39.94768
-40.92979
-42.01679
-43.07062
-44.17901
-45.42945
-46.58776
-47.81164
-49.16307
-50.58065
-52.0582
-53.51988
-55.09453
-57.00253
-58.97244
-61.31544
-63.99137
-67.36167
-71.21801
-74.27544
-76.64387
-79.1775
-80.21506
-82.07897
-84.80713
-88.37166
-92.26161
-96.44928
-101.1453
-105.8727
-111.3592
-116.862
-122.8787
-129.813
-136.9255
-144.19
-151.9613
-159.6968
-167.5401
-175.3955
-182.7904
-189.5212
-195.3849
-199.6237
-202.4055
-203.2626
-202.1058
-198.8549
-193.7239
-187.1987
-180.5066
-175.8536
-174.6757
-184.5065
-205.2712
-201.9656
-162.1395
-132.8781
-135.6684
-151.5373
-170.1639
-181.5065
-184.1879
-179.75
-172.549
-164.1275
-153.0075
-141.9034
-133.4713
-127.7256
-124.5583
-124.9944
-126.642
-126.1072
-123.7426
-29.78558
-25.86691
-29.82942
-31.90545
-29.61109
-25.60189
-27.62245
-29.73564
-31.67716
-33.16794
-34.27448
-35.11833
-35.72233
-36.1821
-37.01643
-39.30325
-43.98781
-51.32619
-59.82135
-66.01861
-68.97337
-66.66861
-59.56779
-57.07504
-57.35564
-63.49476
-77.46598
-99.2934
-107.1609
-101.5752
-83.52138
-54.05162
-56.41544
-68.46949
-78.62802
-84.89415
-85.14676
-85.17896
-85.91097
-85.62283
-83.90411
-80.65493
-76.5505
-71.99106
-67.72505
-64.60496
-62.02472
-60.01106
-54.96814
-42.17394
-0.3433971
-0.08001364
5.926169
7.45718
-12.26658
-2.47216
1.727516
8.950581
0.5713953
3.961646
-15.583
0.2387234
-0.1266844
-3.865084
1.45821
9.812253
8.732616
-2.674648
3.705681
-20.48419
-3.033975
3.433367
2.302482
3.696308
-0.9787144
7.755552
3.389376
6.435008
7.188462
-2.472748
-3.217112
-1.716077
-16.00986
-1.171957
4.711268
0.7114031
2.7046
7.19414
0.579256
6.959874
6.18688
-0.09434474
-3.119711
-14.65799
1.37517
-57.38026
-0.1474021
-0.1054216
-0.2193098
6.115661
-0.2329126
-1.980053
-0.6948406
-6.552832
5.962275
2.834389
-1.201028
-3.127927
-4.977059
-0.07742547
0.8722993
2.26228
-2.313751
-20.58367
6.578376
-5.395203
-1.857905
-41.84559
32.09994
0.06584131
0.1475109
-15.31586
5.069269
7.98777
2.58367
2.15492
2.019696
1.239059
-0.3952642
1.834151
-106.1457
0.2252008
-144.0019
-2.214223
-15.85891
-3.573942
11.68195
2.351721
-2.688034
-0.9413459
10.37831
10.53923
8.767967
6.22542
-32.04871
0.29041
9.396188
4.506918
-35.34442
-41.75896
-4.636605
-72.69107
3.235468
-38.33613
7.169701
7.623244
-6.42496
6.519208
-6.342244
9.023234
2.504821
-167.9877
1.958886
1.274145
4.609257
0.8633366
-2.249911
-39.64939
11.33628
5.983645
-1.547528
-0.5401565
-2.561277
-0.3619315
7.159574
-5.919612
-0.1712099
4.174174
-26.78707
-10.24993
14.67852
9.739504
7.428727
-4.564851
1.125478
-0.8988023
-0.884301
-26.99746
-1.118032
6.741916
7.413009
6.542422
8.443579
-3.653636
-1.150801
-46.67626
4.184376
-1.913175
-1.475394
-34.08112
0.183107
-6.53443
-2.409669
7.841262
3.652503
8.02384
-2.675677
-3.940704
0.04890318
0.2156244
-12.42701
8.225778
-0.6295363
1.136745
10.19758
-3.62535
-2.666804
9.306472
-2.797152
8.8488
3.020643
-47.49013
1.919739
0.2312106
-2.209143
0.03613548
-1.958835
-0.3478872
-2.520476
-77.06677
-6.521358
8.803713
7.251912
4.611169
-1.085829
6.346272
7.932604
7.452814
12.0576
-8.306961
-1.493719
3.064241
0.478811
3.666776
-40.3332
-1.454033
-1.444671
-23.24752
9.998865
-1.33894
-24.86819
0.6082854
-0.948722
7.112973
-0.2646612
4.018409
0.320022
8.751515
-4.361466
1.399434
1.509668
2.10069
1.641404
6.84722
-0.7916405
1.503727
1.435927
-2.706295
6.611538
-11.38215
7.278333
-1.312802
7.232695
4.53161
17.88697
-237.0652
2.418708
2.119263
8.072424
-1.733046
-8.690807
0.5175085
-0.5013062
6.497236
-12.38898
-9.200455
7.083629
3.6155
-33.22438
-0.9119418
7.09267
-36.22252
-1.396135
-1.687929
-0.7906638
1.421299
0.06049782
0.2815221
-1.286456
3.720218
3.749401
-46.04645
9.467465
-0.4044027
-0.2279299
-9.742766
-5.575039
6.726152
-1.076661
-0.5438328
8.48642
-32.49652
5.39973
-3.729995
6.269693
1.306711
2.943801
0.5483241
7.242154
0.2187922
-2.001972
2.914872
-2.587591
-0.5990165
10.00506
-29.3281
6.714476
1.852347
0.9196755
5.388372
0.1824122
-8.31055
-26.55065
-2.84437
11.32594
-6.314296
0.2463882
5.847596
5.547608
1.20299
-3.502474
1.76503
-34.16176
4.733919
9.78782
-28.48332
-0.2254649
-166.8248
3.879776
1.645107
-1.48708
-57.81777