/*--------------------------------*- C++ -*----------------------------------*\
| =========                 |                                                 |
| \\      /  F ield         | OpenFOAM: The Open Source CFD Toolbox           |
|  \\    /   O peration     | Version:  2406                                  |
|   \\  /    A nd           | Website:  www.openfoam.com                      |
|    \\/     M anipulation  |                                                 |
\*---------------------------------------------------------------------------*/
FoamFile
{
    version     2.0;
    format      ascii;
    arch        "LSB;label=32;scalar=64";
    class       surfaceScalarField;
    location    "3.64";
    object      phi;
}
// * * * * * * * * * * * * * * * * * * * * * * * * * * * * * * * * * * * * * //

dimensions      [0 3 -1 0 0 0 0];

oriented        oriented;

internalField   nonuniform List<scalar> 
23794
(
-0.008277539
0.006319367
0.001958172
-0.008538091
0.000260552
-0.008275356
-0.0002627347
-0.00785297
-0.0004223862
-0.007287846
-0.0005651247
-0.006643723
-0.0006441221
-0.005938348
-0.0007053756
-0.005162025
-0.0007763233
-0.00443189
-0.0007301344
-0.00393045
-0.0005014401
-0.003629035
-0.0003014149
-0.003582931
-4.610403e-05
-0.003519252
-6.367872e-05
-0.003225607
-0.0002936457
-0.002750481
-0.0004751257
-0.002228532
-0.0005219489
-0.001746089
-0.0004824431
-0.001016728
-0.0007293613
-0.0009251212
-9.160639e-05
-0.001468919
0.0005437977
-0.002286258
0.0008173393
-0.003030373
0.0007441151
-0.003244649
0.0002142762
-0.001945089
-0.001299561
0.0004029001
-0.002347989
0.002571878
-0.002168977
0.004969415
-0.002397538
0.008502514
-0.003533099
0.01105075
-0.002548238
0.008762208
0.002288545
-9.890667e-05
0.008861115
-0.006007734
0.005908827
-0.002285607
-0.003722126
0.002428497
-0.004714104
0.005803213
-0.003374716
0.007436742
-0.00163353
0.005374738
0.002062005
0.002382161
0.002992576
-0.0006798643
0.003062026
-0.00528439
0.004604526
-0.009246879
0.003962489
-0.01146177
0.002214891
-0.01263237
0.001170602
-0.01333075
0.0006983821
-0.01379033
0.0004595763
-0.01401932
0.0002289906
-0.01412379
0.000104473
-0.0141491
2.53016e-05
-0.01410491
-4.418599e-05
-0.01403623
-6.86812e-05
-0.01390695
-0.0001292763
-0.0137339
-0.0001730533
-0.01350149
-0.0002324135
-0.01324295
-0.0002585361
-0.01296477
-0.0002781776
-0.0126322
-0.0003325668
-0.01227805
-0.0003541579
-0.01191375
-0.0003642998
-0.01148646
-0.000427289
-0.01103543
-0.0004510276
-0.01055844
-0.000476989
-0.01007355
-0.0004848871
-0.009566958
-0.0005065961
-0.009012095
-0.0005548633
-0.008462874
-0.0005492212
-0.007872702
-0.0005901723
-0.00726517
-0.0006075319
-0.006649868
-0.0006153016
-0.006024945
-0.0006249229
-0.005370124
-0.0006548212
-0.004711833
-0.0006582909
-0.004044019
-0.0006678137
-0.003360934
-0.0006830849
-0.002673126
-0.0006878083
-0.002006153
-0.0006669734
-0.001297015
-0.000709138
-0.0006134441
-0.0006835707
3.133156e-05
-0.0006447756
0.0006682929
-0.0006369614
0.001428272
-0.0007599793
0.002174902
-0.0007466297
0.002906546
-0.0007316445
0.003621867
-0.000715321
0.004316485
-0.000694618
0.005007929
-0.0006914432
0.005676175
-0.0006682464
0.006354566
-0.0006783907
0.007012295
-0.0006577294
0.007635206
-0.0006229112
0.008262399
-0.0006271929
0.008877409
-0.0006150103
0.009470554
-0.0005931446
0.01006189
-0.0005913317
0.01064048
-0.0005785898
0.01116459
-0.0005241173
0.01168647
-0.0005218737
0.01219479
-0.0005083259
0.01266241
-0.0004676192
0.01313322
-0.0004708084
0.01355274
-0.0004195186
0.01394657
-0.0003938348
0.01430307
-0.0003564957
0.01461858
-0.0003155122
0.01493307
-0.0003144847
0.01521287
-0.0002798007
0.01545652
-0.0002436485
0.01566114
-0.0002046211
0.01582761
-0.0001664741
0.01597033
-0.0001427151
0.01605415
-8.382606e-05
0.01612874
-7.459071e-05
0.01614884
-2.00962e-05
0.01602213
0.0001267072
0.01578152
0.0002406124
0.0154441
0.0003374226
0.01498036
0.000463732
0.01426933
0.0007110368
0.013064
0.001205324
0.01069267
0.002371333
0.006288143
0.004404527
0.0008032513
0.005484892
-0.003084113
0.003887364
-0.005180307
0.002096194
-0.005666712
0.0004864048
-0.003635681
-0.00203103
0.0007579145
-0.004393596
0.005112837
-0.004354922
0.001061697
0.004051139
-0.008613272
0.009674969
-0.01299061
0.004377343
-0.01125075
-0.001739864
-0.008144878
-0.003105872
-0.006279095
-0.001865784
-0.005681134
-0.0005979606
-0.005208076
-0.0004730588
-0.004035556
-0.001172519
-0.001902265
-0.002133291
0.001444886
-0.003347151
0.004176957
-0.002732071
0.003942229
0.000234728
0.001617323
0.002324906
-0.000822298
0.002439621
-0.002559885
0.001737587
-0.003204451
0.0006445656
-0.003002232
-0.0002022182
-0.001962128
-0.001040104
0.0001132088
-0.002075337
0.002912744
-0.002799535
0.003710229
-0.0007974857
0.001479225
0.002231004
0.0002011527
0.001278073
0.001163906
-0.0009627537
0.002014639
-0.0008507324
0.001997583
1.705612e-05
0.0009322237
0.001065359
-0.002278147
0.00321037
0.004041221
-0.01168189
0.01159072
0.002049346
-0.0112744
-0.0001469405
-0.01088823
-0.0006489007
-0.01029146
-0.001019158
-0.009552293
-0.001304292
-0.008725912
-0.001470503
-0.007857839
-0.001573449
-0.006955685
-0.001678477
-0.006161381
-0.001524439
-0.005649785
-0.001013035
-0.005323602
-0.0006275978
-0.00516028
-0.0002094261
-0.004906447
-0.0003175117
-0.004400105
-0.0007999878
-0.003688178
-0.001187053
-0.002900292
-0.001309835
-0.002117101
-0.001265634
-0.001095898
-0.001750564
-0.0008453799
-0.0003421241
-0.00158714
0.001285558
-0.003272512
0.002502711
-0.004739633
0.002211236
-0.004498085
-2.727187e-05
-0.002158628
-0.003639018
0.0005929313
-0.005099548
0.002782265
-0.004358311
0.005357129
-0.004972401
0.009337767
-0.007513737
0.01231428
-0.005524752
0.01198883
0.002613998
0.00282044
0.0180295
-0.005803598
0.01453286
-0.004163156
-0.005362569
-0.00109102
-0.00778624
0.0005437575
-0.005009493
0.003531245
-0.004621017
0.004456314
0.001136936
-0.001322141
0.008771031
-0.01079528
0.01253516
-0.0170708
0.01088004
-0.01961359
0.006505285
-0.02029957
0.002900869
-0.02048439
0.001355419
-0.02052008
0.0007340713
-0.02048557
0.0004250699
-0.02033311
7.653295e-05
-0.02015672
-7.191602e-05
-0.01997347
-0.0001579526
-0.01974839
-0.0002692655
-0.01950381
-0.000313259
-0.01919677
-0.0004363161
-0.01884701
-0.0005228114
-0.01843362
-0.000645806
-0.01799311
-0.0006990464
-0.01753855
-0.000732738
-0.01702547
-0.000845651
-0.0164866
-0.000893022
-0.01594133
-0.0009095724
-0.01532391
-0.001044714
-0.01468382
-0.001091112
-0.01401381
-0.001146998
-0.01333425
-0.00116445
-0.01263512
-0.001205721
-0.0118784
-0.001311583
-0.0111303
-0.001297325
-0.01033923
-0.001381239
-0.009525853
-0.001420913
-0.008706706
-0.001434448
-0.007880405
-0.001451224
-0.007017638
-0.001517588
-0.006150057
-0.001525871
-0.00527371
-0.001544161
-0.004380672
-0.001576123
-0.003484906
-0.001583575
-0.002610584
-0.001541295
-0.001693099
-0.001626623
-0.0008044749
-0.001572195
4.100601e-05
-0.001490257
0.0008770452
-0.001473001
0.001851747
-0.001734682
0.002816519
-0.001711402
0.003765104
-0.001680229
0.00469332
-0.001643537
0.005600532
-0.001601831
0.006506094
-0.001597005
0.007385135
-0.001547287
0.008276413
-0.001569669
0.009144643
-0.001525959
0.009970329
-0.001448598
0.01080359
-0.001460451
0.01162699
-0.001438417
0.01242274
-0.00138889
0.01321736
-0.001385954
0.0140014
-0.001362628
0.01472152
-0.001244238
0.01544331
-0.001243661
0.01615001
-0.001215029
0.01681132
-0.00112893
0.01747829
-0.001137772
0.01808485
-0.001026081
0.01867001
-0.0009789953
0.0192131
-0.0008995905
0.01971106
-0.0008134709
0.02021464
-0.0008180664
0.02068112
-0.000746281
0.02110757
-0.0006700945
0.02149394
-0.0005909942
0.02184064
-0.0005131761
0.02216387
-0.0004659436
0.02242861
-0.0003485629
0.0226924
-0.0003383811
0.02292794
-0.0002556331
0.02307466
-2.002019e-05
0.0231861
0.0001291746
0.02328015
0.0002433792
0.02335001
0.0003938645
0.0233419
0.0007191524
0.02319785
0.001349377
0.02255373
0.003015448
0.01990794
0.007050314
0.01360482
0.01178801
0.005303087
0.0121891
-0.0001489349
0.007548216
0.0003957461
-5.827616e-05
0.002603297
-0.004238581
0.003938418
-0.005728718
0.005058054
-0.005474557
-0.001920073
0.01102927
-0.01220274
0.01995764
-0.01412075
0.006295354
-0.01148836
-0.004372255
-0.008246393
-0.006347839
-0.006326779
-0.003785398
-0.00567877
-0.00124597
-0.00516399
-0.0009878392
-0.003860308
-0.002476201
-0.00155869
-0.004434909
0.002143928
-0.007049769
0.006151708
-0.00673985
0.006125952
0.0002604838
0.001622618
0.00682824
-0.002107065
0.006169305
-0.003583488
0.003214009
-0.003972272
0.00103335
-0.003642151
-0.0005323392
-0.002418464
-0.002263792
-6.587316e-05
-0.004427927
0.003049939
-0.005915347
0.00498732
-0.002734867
0.004139109
0.003079215
0.002591949
0.002825232
0.002390562
-0.0007613664
0.002516538
-0.0009767081
0.001819352
0.0007142419
-0.002364066
0.005248777
-0.008463732
0.009310036
0.007168206
-0.01360912
0.01401646
0.001642001
-0.01344156
-0.0003144955
-0.01296396
-0.001126505
-0.01226618
-0.001716942
-0.01137492
-0.002195552
-0.01036249
-0.002482928
-0.00926979
-0.00266615
-0.008099013
-0.002849254
-0.00702897
-0.002594482
-0.006323297
-0.001718709
-0.005887968
-0.001062927
-0.005670595
-0.0004267991
-0.00529907
-0.0006890365
-0.004577449
-0.001521609
-0.003639253
-0.002125249
-0.002678867
-0.002270221
-0.001750002
-0.002194499
-0.0005091907
-0.002991375
-6.689349e-05
-0.0007844214
-0.0008998984
0.002118563
-0.002967535
0.004570348
-0.004767988
0.004011689
-0.004456061
-0.0003391984
-0.001989578
-0.006105501
0.0004178763
-0.007507002
0.002259236
-0.006199671
0.004970011
-0.007683176
0.009500891
-0.01204462
0.01286881
-0.008892668
0.0130671
0.002415708
0.005526394
0.02557021
-0.004065927
0.02412519
-0.007687466
-0.001741029
-0.008830062
-0.006643644
-0.008040622
-0.005798934
-0.005669717
-0.006991921
-0.006502161
0.00196938
-0.01359351
0.01586238
-0.02137327
0.02031492
-0.02391715
0.01342392
-0.02393983
0.006527967
-0.02392102
0.002882058
-0.024041
0.001475405
-0.02413111
0.000824177
-0.0241788
0.0004727557
-0.02407478
-2.748441e-05
-0.0239177
-0.0002289968
-0.02372449
-0.0003511567
-0.02346759
-0.0005261679
-0.02318838
-0.0005924684
-0.02283209
-0.0007926106
-0.02242587
-0.0009290307
-0.02194237
-0.001129307
-0.02142596
-0.001215452
-0.02089382
-0.001264882
-0.02028888
-0.001450593
-0.01965308
-0.00152882
-0.01901102
-0.001551632
-0.01827979
-0.00177594
-0.01752159
-0.00184931
-0.01672718
-0.001941416
-0.01592099
-0.001970634
-0.01509136
-0.002035354
-0.01419043
-0.002212513
-0.01330089
-0.002186863
-0.01235741
-0.00232472
-0.01138734
-0.002390983
-0.01040954
-0.00241225
-0.009422636
-0.002438127
-0.00839148
-0.002548744
-0.00735414
-0.002563212
-0.006305181
-0.002593119
-0.005236445
-0.002644859
-0.00416308
-0.00265694
-0.003113345
-0.002591031
-0.002013954
-0.002726014
-0.0009474302
-0.002638718
7.176835e-05
-0.002509455
0.001078062
-0.002479294
0.002237456
-0.002894076
0.003387599
-0.002861544
0.004519436
-0.002812067
0.005626363
-0.002750463
0.006708792
-0.002684259
0.00778921
-0.002677423
0.008837215
-0.002595292
0.009899917
-0.002632372
0.01093389
-0.002559937
0.01191679
-0.002431489
0.01290874
-0.002452408
0.01388774
-0.002417415
0.01483322
-0.002334366
0.01577746
-0.002330198
0.01670825
-0.002293413
0.01756149
-0.002097484
0.01841734
-0.00209951
0.01925421
-0.002051894
0.02003511
-0.001909831
0.02082474
-0.001927404
0.02153933
-0.001740674
0.02222919
-0.001668854
0.02286736
-0.001537765
0.02344947
-0.001395576
0.02403997
-0.001408566
0.02458343
-0.001289744
0.02508004
-0.001166703
0.02552721
-0.001038162
0.02592668
-0.0009126515
0.02629883
-0.000838093
0.0265986
-0.000648326
0.02690097
-0.0006407503
0.02715256
-0.0005072317
0.02726296
-0.0001304207
0.02731228
7.985552e-05
0.02733528
0.0002203833
0.02733415
0.0003949959
0.02727777
0.0007755294
0.02721018
0.001416971
0.02735682
0.002868804
0.02758012
0.006827011
0.02580237
0.01356577
0.02085042
0.01714104
0.01653687
0.01186177
0.01498382
0.00149477
0.01444099
-0.003695754
0.01132385
-0.002611573
0.005806708
4.258392e-05
-0.003726814
0.02056279
-0.01135787
0.02758869
-0.0121118
0.007049281
-0.009348116
-0.007135934
-0.005607084
-0.01008887
-0.003925021
-0.005467461
-0.003677297
-0.001493694
-0.00348623
-0.001178906
-0.002348731
-0.0036137
-0.000132468
-0.006651172
0.003268279
-0.01045052
0.007427511
-0.01089908
0.006662091
0.001025903
0.0009629653
0.01252737
-0.002828767
0.009961037
-0.004312877
0.004698119
-0.004873915
0.001594388
-0.004570661
-0.0008355933
-0.003282983
-0.003551469
-0.0008377135
-0.006873197
0.00270802
-0.00946108
0.00534389
-0.005370737
0.005518055
0.002905051
0.004277225
0.004066062
0.003281877
0.0002339815
0.002265836
3.933308e-05
-0.001493427
0.004473505
-0.008480663
0.01223601
-0.0133392
0.01416857
0.007845475
-0.0161715
0.01624179
0.001571709
-0.01598712
-0.0004988668
-0.0154585
-0.001655126
-0.0146954
-0.002480044
-0.01369598
-0.00319497
-0.01254709
-0.003631821
-0.01128286
-0.003930383
-0.00988692
-0.004245192
-0.008531485
-0.003949917
-0.007541885
-0.002708309
-0.006833877
-0.001770934
-0.006457351
-0.0008033255
-0.005995402
-0.001150985
-0.005131788
-0.002385223
-0.004001057
-0.00325598
-0.002836913
-0.003434364
-0.00170109
-0.003330323
-0.0001202649
-0.0045722
0.0008674152
-0.001772101
0.0002076044
0.002778373
-0.001968229
0.006746182
-0.003872776
0.005916236
-0.003691628
-0.0005203455
-0.001779451
-0.008017678
-0.0003176087
-0.008968845
0.001048632
-0.007565912
0.003966584
-0.01060113
0.009165633
-0.01724367
0.01314071
-0.01286775
0.01296191
0.002594507
0.006326933
0.03220519
-0.004059788
0.03451191
-0.01342842
0.007627606
-0.01901395
-0.001058116
-0.02057308
-0.00423981
-0.02103936
-0.006525641
-0.02302266
0.003952683
-0.02670099
0.01954072
-0.02883264
0.02244657
-0.02849097
0.01308225
-0.02840741
0.006444413
-0.02878697
0.003261612
-0.02907767
0.001766105
-0.02923619
0.0009826985
-0.02929512
0.0005316821
-0.02914798
-0.0001746224
-0.02893168
-0.0004452984
-0.02867427
-0.0006085633
-0.02834236
-0.0008580772
-0.02798613
-0.0009486961
-0.02754084
-0.001237902
-0.02703742
-0.001432448
-0.02644242
-0.001724316
-0.02580876
-0.001849107
-0.02515775
-0.001915887
-0.02442158
-0.002186766
-0.02364863
-0.002301773
-0.02286884
-0.002331424
-0.02198561
-0.002659172
-0.02106832
-0.002766594
-0.0201087
-0.002901034
-0.01913633
-0.002943013
-0.01813725
-0.003034434
-0.01705147
-0.003298292
-0.01598215
-0.003256178
-0.01484688
-0.00345999
-0.01368141
-0.003556449
-0.01250576
-0.003587909
-0.01131974
-0.003624143
-0.01008081
-0.003787672
-0.008834434
-0.00380959
-0.007573675
-0.003853878
-0.006291096
-0.003927438
-0.005000432
-0.003947604
-0.003737734
-0.003853728
-0.002414044
-0.004049704
-0.001127664
-0.003925099
0.0001089512
-0.00374607
0.001327444
-0.003697787
0.002711752
-0.004278384
0.004084943
-0.004234735
0.005440703
-0.004167827
0.006765613
-0.004075374
0.00806065
-0.003979296
0.009353007
-0.00396978
0.01060641
-0.003848693
0.01188023
-0.003906195
0.01311748
-0.003797188
0.01429704
-0.00361105
0.01548905
-0.003644412
0.01666389
-0.003592255
0.0178022
-0.003472677
0.01894116
-0.003469155
0.02006105
-0.003413306
0.02109177
-0.003128203
0.02212652
-0.003134258
0.02313739
-0.003062763
0.02408351
-0.002855952
0.02504088
-0.002884774
0.02590917
-0.002608966
0.02674789
-0.00250757
0.02752584
-0.002315719
0.02824002
-0.002109755
0.02896404
-0.00213259
0.02963183
-0.001957529
0.0302466
-0.001781472
0.03080109
-0.001592659
0.03130169
-0.001413247
0.03177048
-0.001306885
0.03215544
-0.001033281
0.03254338
-0.001028692
0.03287426
-0.0008381095
0.03304
-0.0002961618
0.03312552
-5.667378e-06
0.03316697
0.0001789329
0.03316387
0.0003980957
0.03304344
0.0008959645
0.03280751
0.001652893
0.03250305
0.003173263
0.03277695
0.006553112
0.03361652
0.0127262
0.03342058
0.01733699
0.03207286
0.01320949
0.03031602
0.003251605
0.0281688
-0.001548534
0.02252776
0.003029468
0.01083831
0.01173204
-0.002201138
0.03360223
-0.008481324
0.03386888
-0.009222468
0.007790426
-0.005697137
-0.01066127
-0.0008225986
-0.01496341
0.001633813
-0.007923873
0.001259218
-0.001119099
0.0005651058
-0.0004847931
0.0009391962
-0.003987791
0.002232848
-0.007944824
0.005023785
-0.01324145
0.008428662
-0.01430396
0.006273317
0.003181248
9.841627e-05
0.01870227
-0.003417998
0.01347745
-0.005291818
0.006571938
-0.00611758
0.00242015
-0.005940159
-0.001013015
-0.004646323
-0.004845305
-0.002002205
-0.009517315
0.001940004
-0.01340329
0.005134914
-0.008565647
0.005873615
0.002166349
0.004732187
0.00520749
0.003201596
0.001764572
-0.0007203989
0.003961328
-0.008250123
0.01200323
-0.01485698
0.01884287
-0.01674092
0.01605251
0.00734634
-0.01901025
0.01888519
0.001696775
-0.01872707
-0.0007820537
-0.01811777
-0.002264426
-0.01725565
-0.00334216
-0.01614321
-0.004307409
-0.01488011
-0.004894923
-0.01350369
-0.005306798
-0.0119822
-0.005766684
-0.01046144
-0.005470682
-0.009327489
-0.003842256
-0.008425696
-0.002672727
-0.007878294
-0.001350728
-0.007256309
-0.001772971
-0.006194005
-0.003447526
-0.004864021
-0.004585964
-0.003448001
-0.004850385
-0.00192876
-0.004849564
0.0001683979
-0.006669358
0.001590884
-0.003194588
0.001430278
0.00293898
-0.0006457819
0.008822242
-0.00273565
0.008006103
-0.002810447
-0.0004455483
-0.001913626
-0.008914499
-0.001853126
-0.009029345
-0.001137241
-0.008281796
0.002071265
-0.01380963
0.007637517
-0.02280992
0.01192811
-0.01715834
0.01111747
0.003405145
0.004862821
0.03845983
-0.006474582
0.04584931
-0.0202107
0.02136373
-0.0283423
0.007073483
-0.03144534
-0.001136774
-0.03386556
-0.00410542
-0.03579329
0.005880409
-0.03579412
0.01954155
-0.03423936
0.02089181
-0.03346891
0.0123118
-0.03381812
0.006793616
-0.03426839
0.003711885
-0.03460873
0.002106447
-0.03479842
0.00117239
-0.03490775
0.0006410116
-0.03475747
-0.0003249007
-0.03452603
-0.000676739
-0.03424466
-0.0008899386
-0.03385753
-0.001245205
-0.03345801
-0.001348215
-0.03293502
-0.00176089
-0.03234841
-0.002019063
-0.03164447
-0.002428255
-0.03089493
-0.002598645
-0.03012785
-0.002682964
-0.02925088
-0.00306374
-0.02833028
-0.003222375
-0.02740493
-0.003256772
-0.02635201
-0.003712093
-0.0252552
-0.003863396
-0.02410841
-0.004047825
-0.02294851
-0.004102916
-0.02175634
-0.004226604
-0.02045386
-0.004600769
-0.01917825
-0.004531788
-0.01781743
-0.004820815
-0.01642381
-0.004950073
-0.01501587
-0.004995842
-0.01359741
-0.005042609
-0.01211191
-0.005273166
-0.01061702
-0.005304485
-0.00910179
-0.005369105
-0.007563636
-0.005465593
-0.006013135
-0.005498104
-0.004497792
-0.005369071
-0.002903122
-0.005644375
-0.001349412
-0.005478809
0.0001532684
-0.00524875
0.001630161
-0.005174679
0.003285553
-0.005933776
0.004925646
-0.005874828
0.00655037
-0.005792551
0.008131535
-0.005656539
0.00967467
-0.005522431
0.01121686
-0.005511971
0.01271299
-0.00534482
0.01423985
-0.00543306
0.01571687
-0.005274201
0.01713208
-0.00502626
0.0185648
-0.005077132
0.01996834
-0.004995795
0.02133365
-0.004837994
0.02270487
-0.004840376
0.02404308
-0.004751516
0.02527695
-0.004362066
0.02651805
-0.004375361
0.02772648
-0.004271198
0.02885373
-0.003983193
0.03000086
-0.00403191
0.03103489
-0.00364299
0.03203313
-0.003505811
0.03295726
-0.003239849
0.03380146
-0.002953956
0.03466099
-0.002992126
0.03544519
-0.002741723
0.03617119
-0.00250747
0.03681743
-0.002238903
0.03739898
-0.001994794
0.03794704
-0.001854946
0.03837913
-0.001465378
0.03882381
-0.001473364
0.03919735
-0.001211651
0.03936173
-0.0004605473
0.03943284
-7.677038e-05
0.03944955
0.0001622199
0.03941127
0.0004363771
0.03924822
0.00105901
0.03899081
0.001910307
0.03863393
0.003530145
0.03850545
0.006681586
0.0394059
0.01182575
0.04093704
0.01580584
0.0414019
0.01274463
0.03979019
0.004863319
0.03732995
0.0009117005
0.03242865
0.007930769
0.01893283
0.02522786
0.004288952
0.04824611
-0.002082289
0.04024012
-0.002914902
0.008623039
0.000743709
-0.01431988
0.005785547
-0.02000525
0.008968627
-0.01110695
0.009162458
-0.00131293
0.007800273
0.0008773928
0.006732809
-0.002920327
0.006545948
-0.007757963
0.007614395
-0.0143099
0.009163389
-0.01585295
0.005239668
0.007104969
-0.001021795
0.02496373
-0.004165216
0.01662087
-0.006652264
0.009058986
-0.007843987
0.003611873
-0.007841112
-0.00101589
-0.006541082
-0.006145335
-0.003693766
-0.01236463
0.000271851
-0.01736891
0.004108038
-0.01240183
0.005423477
0.00085091
0.004200764
0.006430203
0.0005307213
0.005434615
-0.007305625
0.01179767
-0.01626355
0.02096115
-0.01994508
0.0225244
-0.0194374
0.01554483
0.006794127
-0.02217059
0.02209775
0.001769618
-0.0217811
-0.001171548
-0.02101602
-0.003029506
-0.01994281
-0.004415371
-0.01857364
-0.005676578
-0.01707028
-0.006398284
-0.01551112
-0.006865957
-0.01388958
-0.007388217
-0.01228802
-0.007072249
-0.01113529
-0.004994977
-0.01006857
-0.003739457
-0.009313251
-0.002106042
-0.008457229
-0.002628993
-0.007124284
-0.004780471
-0.005571009
-0.00613924
-0.003881836
-0.006539557
-0.001875626
-0.006855774
0.00076278
-0.009307764
0.002341133
-0.004772941
0.002575096
0.002705017
0.0006106793
0.01078666
-0.001843498
0.01046028
-0.00257377
0.000284723
-0.002984044
-0.008504224
-0.004522468
-0.007490922
-0.004554801
-0.008249462
-0.001766883
-0.01659755
0.003604529
-0.02818133
0.007861906
-0.02141571
0.006626993
0.004640059
0.001066286
0.04402054
-0.01180333
0.05871892
-0.02727205
0.03683245
-0.03505208
0.01485351
-0.03837083
0.00218198
-0.04176062
-0.0007156276
-0.04359887
0.007718652
-0.04240227
0.01834496
-0.0405229
0.01901244
-0.04038164
0.01217054
-0.04090705
0.007319025
-0.04138573
0.004190564
-0.04178151
0.00250223
-0.04195946
0.001350344
-0.04206066
0.0007422036
-0.04183073
-0.00055483
-0.04153736
-0.0009701025
-0.04118093
-0.001246376
-0.04069051
-0.001735617
-0.04020835
-0.001830382
-0.03956608
-0.002403161
-0.03885649
-0.00272865
-0.03800157
-0.003283178
-0.03709205
-0.003508157
-0.03616951
-0.003605505
-0.0351085
-0.004124753
-0.0339986
-0.004332274
-0.03289018
-0.004365193
-0.03162414
-0.004978133
-0.03030106
-0.005186478
-0.02892421
-0.00542467
-0.02753196
-0.005495167
-0.02610507
-0.005653499
-0.02453543
-0.006170404
-0.02301358
-0.00605364
-0.02137793
-0.006456465
-0.01970821
-0.006619789
-0.01802172
-0.006682336
-0.01632663
-0.006737693
-0.01455014
-0.007049658
-0.01276513
-0.0070895
-0.01094615
-0.007188081
-0.009103306
-0.007308437
-0.007234392
-0.007367017
-0.005421572
-0.007181892
-0.00350399
-0.007561956
-0.001621876
-0.007360923
0.000205092
-0.007075718
0.001996202
-0.006965789
0.003981017
-0.007918592
0.00594541
-0.007839221
0.007881778
-0.007728918
0.009758436
-0.007533198
0.01159416
-0.007358151
0.01343612
-0.00735393
0.01522642
-0.007135121
0.01706543
-0.007272074
0.01883065
-0.007039414
0.02053512
-0.006730733
0.02226673
-0.006808739
0.02394585
-0.00667492
0.02558474
-0.00647688
0.02724765
-0.006503294
0.02885083
-0.006354687
0.03032972
-0.005840965
0.03182511
-0.005870744
0.03327835
-0.005724444
0.03462836
-0.005333199
0.03601217
-0.005415725
0.03725697
-0.004887782
0.03845922
-0.004708061
0.03957046
-0.004351093
0.04059071
-0.003974208
0.04163536
-0.004036777
0.04257846
-0.003684818
0.0434667
-0.003395709
0.04424893
-0.003021135
0.04496255
-0.002708417
0.04563752
-0.002529917
0.04617438
-0.002002236
0.04672742
-0.002026403
0.04718195
-0.001666185
0.04742054
-0.000699132
0.04753559
-0.0001918244
0.04758899
0.0001088254
0.04760255
0.0004228114
0.04743501
0.001226549
0.04715883
0.002186493
0.04678213
0.003906845
0.04647479
0.006988926
0.0467922
0.01150835
0.04782353
0.01477451
0.04823205
0.01233611
0.04649381
0.006601559
0.04380472
0.003600793
0.0408931
0.01084238
0.03025405
0.03586692
0.01641986
0.0620803
0.008373332
0.04828665
0.006557491
0.01043888
0.01060804
-0.01837042
0.01551562
-0.02491282
0.01846679
-0.01405812
0.01890079
-0.001746935
0.01748258
0.002295608
0.0152121
-0.0006498538
0.01301947
-0.005565332
0.0113404
-0.01263082
0.009742981
-0.01425553
0.003887856
0.01296009
-0.002180901
0.03103249
-0.0052686
0.01970857
-0.008509856
0.01230024
-0.01008029
0.005182305
-0.0102447
-0.0008514718
-0.009007132
-0.007382908
-0.006171299
-0.01520046
-0.002123417
-0.02141679
0.002045265
-0.01657052
0.004218615
-0.00132244
0.002173563
0.008475255
-0.005451276
0.01305945
-0.01643221
0.0227786
-0.02335909
0.02788803
-0.02364037
0.02280569
-0.02228765
0.01419211
0.006604226
-0.02584881
0.02580655
0.001811879
-0.02540391
-0.001616445
-0.02444356
-0.003989853
-0.02307556
-0.005783372
-0.02127205
-0.007480088
-0.01924251
-0.008427827
-0.01713819
-0.008970278
-0.01511766
-0.009408748
-0.01330856
-0.008881345
-0.01220549
-0.00609805
-0.01111424
-0.004830708
-0.01019758
-0.003022704
-0.009095609
-0.00373096
-0.007442821
-0.006433259
-0.005640095
-0.007941966
-0.003691771
-0.008487882
-0.001248759
-0.009298785
0.001853657
-0.01241018
0.003419767
-0.006339051
0.003759299
0.002365485
0.001761492
0.01278447
-0.001388158
0.01360993
-0.003257677
0.002154242
-0.00531168
-0.006450221
-0.008738447
-0.004064155
-0.009875542
-0.007112367
-0.008284468
-0.01818863
-0.003743501
-0.0327223
-0.001001594
-0.02415762
-0.001756627
0.005395092
-0.008743994
0.05100791
-0.02104378
0.07101871
-0.03518784
0.0509765
-0.04130573
0.02097141
-0.0447196
0.005595843
-0.04858761
0.003152387
-0.05061513
0.009746173
-0.04985138
0.0175812
-0.04857604
0.01773711
-0.04862577
0.01222026
-0.04906037
0.007753629
-0.04953321
0.004663404
-0.05000751
0.002976529
-0.05018691
0.001529743
-0.05036279
0.0009180896
-0.05010196
-0.0008156685
-0.04976343
-0.001308623
-0.04934945
-0.001660356
-0.04873999
-0.002345084
-0.04819825
-0.002372116
-0.04741444
-0.003186974
-0.04658081
-0.00356228
-0.04555648
-0.00430751
-0.04446002
-0.00460462
-0.04336606
-0.004699455
-0.04209849
-0.00539233
-0.04076685
-0.005663914
-0.03943663
-0.005695408
-0.0379284
-0.00648637
-0.03634394
-0.006770933
-0.0346953
-0.007073309
-0.03300806
-0.007182412
-0.0313237
-0.007337857
-0.02942223
-0.008071874
-0.02761215
-0.007863721
-0.0256389
-0.008429717
-0.02364199
-0.008616696
-0.02162764
-0.008696685
-0.01956919
-0.008796148
-0.01746101
-0.00915783
-0.01533824
-0.009212271
-0.01316279
-0.009363537
-0.01097926
-0.009491963
-0.008696521
-0.009649756
-0.006548777
-0.009329637
-0.004243018
-0.009867715
-0.00195667
-0.00964727
0.0002669393
-0.009299328
0.002440075
-0.009138924
0.004824498
-0.01030302
0.007181469
-0.01019619
0.009452038
-0.009999487
0.01168067
-0.009761828
0.01388336
-0.00956084
0.01608597
-0.009556541
0.01823293
-0.009282081
0.02046742
-0.009506564
0.02258393
-0.009155924
0.0246277
-0.008774507
0.02670867
-0.00888971
0.02873789
-0.008704141
0.03070844
-0.00844743
0.03269557
-0.008490426
0.03462203
-0.008281146
0.03638947
-0.007608399
0.03818056
-0.007661833
0.03990215
-0.007446039
0.04153443
-0.006965475
0.04319586
-0.007077157
0.0446771
-0.006369019
0.04613042
-0.006161382
0.04744331
-0.00566398
0.04866461
-0.005195508
0.04992187
-0.005294043
0.05102961
-0.004792558
0.05210426
-0.004470359
0.05301532
-0.003932194
0.05386864
-0.003561735
0.05468032
-0.003341601
0.0552931
-0.002615018
0.05594999
-0.002683293
0.05650689
-0.00222308
0.05677072
-0.0009629679
0.05688568
-0.0003067808
0.0569241
7.040272e-05
0.05689581
0.0004511036
0.05668171
0.001440648
0.05638716
0.00248105
0.05603257
0.004261429
0.05581054
0.00721096
0.05606971
0.01124917
0.05671102
0.0141332
0.05667458
0.01237255
0.05468975
0.008586386
0.05128699
0.00700356
0.04934482
0.01278455
0.04431986
0.04089188
0.03423746
0.07216269
0.02542202
0.05710209
0.02250561
0.0133553
0.0259902
-0.02185502
0.02891609
-0.02783871
0.03055237
-0.01569441
0.03063177
-0.001826334
0.02902541
0.003901969
0.02576882
0.002606736
0.0214899
-0.00128641
0.01640446
-0.007545382
0.01067836
-0.008529435
0.002837587
0.02080086
-0.003165662
0.03703574
-0.006878979
0.02342189
-0.010975
0.01639626
-0.0128966
0.007103912
-0.01317459
-0.0005734807
-0.01211016
-0.008447344
-0.009623136
-0.01768748
-0.005786382
-0.02525354
-0.001680545
-0.02067635
0.001129347
-0.004132333
-0.003516697
0.0131213
-0.01516877
0.02471153
-0.02573568
0.03334551
-0.02859905
0.0307514
-0.02672649
0.02093313
-0.02572469
0.01319031
0.006686081
-0.03028827
0.03019681
0.001903331
-0.02981063
-0.002094084
-0.02858909
-0.005211387
-0.02694871
-0.00742375
-0.02474778
-0.009681022
-0.02205493
-0.01112068
-0.01900653
-0.01201867
-0.0158764
-0.01253888
-0.01317669
-0.01158106
-0.01167993
-0.007594808
-0.01061169
-0.00589895
-0.00983035
-0.003804044
-0.008789153
-0.004772157
-0.006801177
-0.008421235
-0.004758481
-0.009984662
-0.002597851
-0.01064851
0.0001461998
-0.01204284
0.003412063
-0.01567604
0.004790317
-0.007717305
0.004985543
0.00217026
0.002779874
0.01499013
-0.000836515
0.01722632
-0.004235186
0.005552913
-0.008887479
-0.001797928
-0.01519864
0.002247007
-0.01823968
-0.00407133
-0.01875209
-0.01767622
-0.01594638
-0.035528
-0.01349558
-0.02660842
-0.01544043
0.007339938
-0.0245095
0.06007698
-0.03543468
0.08194389
-0.04514541
0.06068724
-0.04916173
0.02498773
-0.05318095
0.009615054
-0.05735934
0.007330779
-0.05969043
0.01207727
-0.05951481
0.01740558
-0.05858754
0.01680984
-0.05866712
0.01229984
-0.05912258
0.008209087
-0.05956792
0.005108749
-0.06017303
0.003581635
-0.06025661
0.001613325
-0.06044941
0.001110889
-0.06011696
-0.001148117
-0.05969447
-0.001731114
-0.05925444
-0.002100387
-0.05844853
-0.003150995
-0.0578374
-0.002983244
-0.05688257
-0.0041418
-0.05590853
-0.00453632
-0.05465972
-0.005556324
-0.05331356
-0.005950779
-0.05202389
-0.005989127
-0.05053265
-0.006883571
-0.04887503
-0.007321535
-0.04728541
-0.00728502
-0.04550169
-0.008270092
-0.04361942
-0.008653208
-0.04160829
-0.009084434
-0.03956265
-0.009228054
-0.03763505
-0.009265462
-0.03526869
-0.01043823
-0.03314742
-0.009984992
-0.03070641
-0.01087072
-0.02836877
-0.01095433
-0.02596024
-0.01110522
-0.02345461
-0.01130178
-0.02096755
-0.01164489
-0.01840355
-0.01177628
-0.01578726
-0.01197983
-0.01323772
-0.0120415
-0.01046106
-0.01242642
-0.007951391
-0.0118393
-0.005139228
-0.01267988
-0.002378265
-0.01240823
0.000336494
-0.01201409
0.002994041
-0.01179647
0.00588568
-0.01319465
0.008603484
-0.012914
0.01125641
-0.01265241
0.01395007
-0.01245549
0.01663807
-0.01224884
0.01929298
-0.01221145