/*--------------------------------*- C++ -*----------------------------------*\
| =========                 |                                                 |
| \\      /  F ield         | OpenFOAM: The Open Source CFD Toolbox           |
|  \\    /   O peration     | Version:  2406                                  |
|   \\  /    A nd           | Website:  www.openfoam.com                      |
|    \\/     M anipulation  |                                                 |
\*---------------------------------------------------------------------------*/
FoamFile
{
    version     2.0;
    format      ascii;
    arch        "LSB;label=32;scalar=64";
    class       volScalarField;
    location    "4.04";
    object      p;
}
// * * * * * * * * * * * * * * * * * * * * * * * * * * * * * * * * * * * * * //

dimensions      [0 2 -2 0 0 0 0];

internalField   nonuniform List<scalar> 
15536
(
-63.40311
-61.65089
-57.65105
-52.0816
-46.04858
-40.36993
-35.50456
-31.6796
-29.16071
-27.84093
-27.56414
-27.98017
-28.67827
-29.34368
-29.87135
-30.04911
-29.53421
-28.00294
-25.81591
-21.82856
-17.12371
-13.27961
-10.37799
-7.876868
-8.610973
-13.70977
-20.47228
-28.55471
-44.62808
-78.38917
-120.7603
-125.1976
-78.19507
-30.55284
-39.89394
-64.02356
-88.0615
-99.10585
-91.86803
-83.70231
-83.70444
-87.88468
-91.60344
-93.65138
-94.4348
-94.02512
-92.65221
-90.28327
-87.39321
-84.1328
-80.18984
-75.66868
-70.54045
-65.03872
-59.11483
-52.84243
-46.53642
-40.12171
-33.37751
-26.48117
-19.70131
-13.05065
-6.435105
0.08672335
6.387017
12.54747
18.41225
23.95766
29.07996
33.77774
38.01066
41.77814
45.04778
47.74995
49.8434
51.42747
52.36743
52.72325
52.53214
51.84128
50.41503
48.32685
45.65065
42.39244
38.57434
34.21569
29.38858
24.00241
18.22672
12.10667
5.484746
-1.442226
-8.607873
-16.20499
-23.94266
-31.61188
-39.44846
-47.43071
-55.36347
-63.33262
-71.16601
-78.6756
-85.81694
-92.68218
-99.39789
-105.6379
-111.3796
-116.5719
-121.2338
-125.4346
-128.8767
-131.4689
-133.267
-134.2474
-134.2671
-132.9738
-130.0614
-125.1363
-118.4724
-112.5071
-110.8519
-127.6027
-145.3287
-127.9961
-91.16704
-61.87595
-34.59608
-28.60299
-104.8501
-159.2058
-137.4874
-85.45121
-47.5566
-28.82601
-15.61696
-2.584915
5.157
1.578566
-0.20464
-3.118385
-12.85908
-21.5942
-30.66569
-39.15149
-43.68735
-47.5397
-54.01942
-69.90092
-82.73328
-70.72356
-47.2245
-41.61678
-49.02816
-51.07148
-51.72585
-57.46103
-62.14344
-62.83015
-61.05721
-57.10752
-51.62653
-45.68348
-40.08669
-35.29305
-31.5272
-29.05419
-27.76726
-27.51288
-27.9445
-28.65503
-29.33068
-29.8669
-30.05254
-29.54431
-28.01513
-25.82537
-21.8351
-17.12513
-13.25679
-10.31352
-7.831491
-8.630749
-13.75979
-20.48999
-28.50636
-44.52377
-78.26147
-120.6385
-125.3946
-78.2875
-30.43158
-40.04595
-64.19207
-88.26338
-99.14444
-91.78362
-83.69467
-83.48716
-87.31351
-90.7342
-92.52559
-93.19162
-92.73839
-91.34771
-88.97318
-86.08686
-82.84916
-78.9351
-74.45069
-69.36276
-63.90891
-58.03981
-51.82446
-45.57652
-39.22471
-32.5486
-25.71698
-19.00249
-12.41802
-5.865599
0.5931168
6.831546
12.93023
18.73525
24.22605
29.2984
33.94953
38.14104
41.87233
45.11065
47.78893
49.86256
51.43302
52.36604
52.71975
52.53047
51.84494
50.43001
48.36162
45.71121
42.48429
38.70325
34.38784
29.60873
24.27628
18.56137
12.50168
5.945716
-0.9075614
-8.003002
-15.53074
-23.18794
-30.77844
-38.5382
-46.43977
-54.29263
-62.18311
-69.93979
-77.37342
-84.44279
-91.24553
-97.90401
-104.0862
-109.7784
-114.925
-119.5495
-123.7239
-127.1455
-129.7316
-131.5415
-132.5508
-132.6233
-131.4273
-128.7169
-124.1496
-117.8858
-112.3221
-110.8196
-127.3708
-145.3307
-128.1733
-91.23376
-62.08502
-34.90586
-28.46981
-105.071
-159.4515
-137.2637
-85.16888
-47.34694
-28.7378
-15.65171
-2.680046
5.119618
1.670971
-0.1169979
-3.08066
-12.85183
-21.61646
-30.69874
-39.15689
-43.63153
-47.44342
-53.87772
-69.8511
-82.87916
-70.81453
-47.25394
-41.7242
-49.16067
-51.09967
-51.72457
-57.27256
-61.75599
-62.61243
-60.80569
-56.85298
-51.38066
-45.46696
-39.90809
-35.15542
-31.4209
-28.97633
-27.71127
-27.4743
-27.91996
-28.64381
-29.32924
-29.87388
-30.07004
-29.57159
-28.04663
-25.85215
-21.87311
-17.19507
-13.30577
-10.27448
-7.800004
-8.69929
-13.86468
-20.5293
-28.44785
-44.43515
-78.37885
-121.1699
-126.5299
-79.14709
-30.12038
-39.91379
-64.18339
-88.0235
-99.04454
-91.80973
-83.60635
-83.23811
-86.70788
-89.88426
-91.64069
-92.38662
-91.95974
-90.60705
-88.25261
-85.37913
-82.168
-78.26444
-73.80337
-68.738
-63.31292
-57.47894
-51.27812
-45.05675
-38.74429
-32.0931
-25.29031
-18.60668
-12.05979
-5.543486
0.8879225
7.088439
13.15962
18.93237
24.3937
29.43791
34.06267
38.22811
41.93598
45.15322
47.81633
49.87266
51.43262
52.35936
52.71075
52.52389
51.84383
50.4371
48.38425
45.75186
42.54596
38.78952
34.50084
29.7524
24.44643
18.76543
12.74135
6.215749
-0.5993686
-7.654296
-15.14795
-22.76661
-30.31185
-38.03633
-45.90333
-53.71032
-61.57701
-69.29749
-76.70105
-83.74172
-90.49827
-97.12479
-103.2721
-108.9409
-114.0625
-118.6638
-122.821
-126.2175
-128.7756
-130.5529
-131.5335
-131.5732
-130.31
-127.5341
-123.095
-117.236
-112.0952
-110.9885
-127.7068
-145.4799
-128.3661
-91.30552
-62.06657
-34.80498
-28.43886
-106.7626
-161.0741
-137.6797
-85.14838
-47.16175
-28.66266
-15.75868
-2.910205
4.954796
1.616624
-0.1002542
-3.170636
-12.89752
-21.68145
-30.79601
-39.22027
-43.59776
-47.35526
-53.74625
-69.99916
-83.54862
-71.11589
-46.65693
-41.60417
-49.23165
-51.19138
-51.99946
-57.37597
-61.54061
-61.94383
-60.2238
-56.37395
-50.98702
-45.14916
-39.65751
-34.9701
-31.28095
-28.87429
-27.63732
-27.42264
-27.88723
-28.6311
-29.33225
-29.89123
-30.10623
-29.62433
-28.1123
-25.89457
-21.93728
-17.34038
-13.4224
-10.19655
-7.706295
-8.766967
-13.98094
-20.53463
-28.36367
-44.35942
-78.74246
-122.1386
-128.3602
-80.76287
-30.10638
-39.41741
-63.64378
-86.50924
-96.97182
-90.75113
-83.26656
-82.83043
-85.83295
-88.66046
-90.18206
-90.74531
-90.25469
-88.91348
-86.57646
-83.72518
-80.55604
-76.71948
-72.32983
-67.33337
-61.97921
-56.22456
-50.10444
-43.95757
-37.72959
-31.17352
-24.44509
-17.83693
-11.37183
-4.936273
1.424772
7.547816
13.55318
19.26027
24.66614
29.65499
34.22878
38.34992
42.02042
45.20494
47.84603
49.87793
51.42505
52.34455
52.69344
52.50999
51.83603
50.43743
48.40676
45.80026
42.62559
38.90803
34.66535
29.97198
24.71708
19.10545
13.14971
6.690279
-0.03690943
-7.010607
-14.43302
-21.94929
-29.39877
-37.03791
-44.80289
-52.51022
-60.28112
-67.90384
-75.20043
-82.13524
-88.81292
-95.35914
-101.4108
-107.001
-112.0373
-116.5756
-120.6918
-124.0381
-126.5523
-128.3157
-129.3121
-129.4004
-128.2843
-125.7467
-121.6071
-116.3001
-111.807
-111.3154
-127.2147
-143.5621
-126.9382
-90.78575
-61.56764
-34.18822
-28.81909
-110.0844
-163.7678
-138.6053
-85.34022
-46.97602
-28.57643
-15.88661
-3.228291
4.675865
1.576237
-0.1782139
-3.427541
-13.03609
-21.81319
-30.98874
-39.3651
-43.57505
-47.21942
-53.54669
-70.30605
-84.71764
-71.57105
-45.70838
-41.1976
-49.00424
-51.25835
-52.51798
-57.50136
-61.1676
-61.65853
-59.81167
-55.98854
-50.65041
-44.865
-39.42696
-34.80072
-31.14861
-28.77742
-27.56911
-27.37525
-27.86206
-28.62869
-29.34834
-29.92693
-30.17157
-29.72285
-28.23181
-25.97345
-22.04858
-17.54942
-13.5419
-10.02243
-7.497434
-8.767196
-14.02744
-20.46993
-28.21269
-44.42554
-79.40896
-123.586
-130.6539
-82.8394
-31.46152
-39.35604
-62.7834
-83.41384
-93.13489
-88.55828
-82.63774
-82.28645
-84.91172
-87.50037
-88.89771
-89.54779
-89.08012
-87.76096
-85.42626
-82.52654
-79.40479
-75.5534
-71.19226
-66.20305
-60.89012
-55.19395
-49.09458
-42.99301
-36.84315
-30.34638
-23.66245
-17.11361
-10.72599
-4.358365
1.951921
7.999082
13.95107
19.59631
24.94627
29.8754
34.40169
38.47744
42.10791
45.25185
47.86782
49.87223
51.40413
52.31632
52.66297
52.4841
51.8148
50.42134
48.4216
45.84922
42.70982
39.03354
34.83656
30.19997
24.99324
19.4568
13.56344
7.153501
0.519799
-6.374181
-13.75682
-21.18448
-28.54099
-36.12056
-43.81642
-51.43005
-59.15156
-66.71327
-73.94591
-80.82385
-87.43968
-93.95552
-99.9488
-105.5192
-110.5228
-115.0373
-119.1791
-122.4781
-125.0053
-126.7701
-127.7851
-127.8646
-126.6428
-124.1058
-120.1489
-115.2933
-111.4216
-111.3389
-124.5516
-137.515
-122.477
-89.38122
-61.00228
-33.91771
-30.71041
-114.3168
-167.3969
-140.2043
-85.75394
-46.76592
-28.47135
-15.9529
-3.505091
4.457066
1.709806
-0.3123479
-3.853804
-13.28436
-22.03882
-31.29774
-39.62135
-43.58302
-47.043
-53.3058
-70.92916
-86.50372
-72.21919
-44.7934
-40.57898
-48.54423
-51.334
-53.10343
-57.64221
-60.94434
-61.15822
-59.33563
-55.59754
-50.30905
-44.57559
-39.19974
-34.64737
-31.02887
-28.69219
-27.50356
-27.33287
-27.84429
-28.64067
-29.38561
-29.99324
-30.28109
-29.88745
-28.42595
-26.14884
-22.27423
-17.85288
-13.62229
-9.712236
-7.114755
-8.624963
-13.91982
-20.309
-28.08231
-44.65709
-80.17932
-125.1928
-132.881
-85.53211
-34.96027
-40.71393
-62.37869
-80.56242
-89.20953
-86.10278
-81.69485
-81.41715
-83.617
-85.86958
-86.94469
-87.4505
-86.82429
-85.58167
-83.29573
-80.43666
-77.44808
-73.68023
-69.43267
-64.52528
-59.29417
-53.69696
-47.67083
-41.67287
-35.64398
-29.23375
-22.62987
-16.18683
-9.897852
-3.624348
2.613761
8.552948
14.43686
19.99534
25.25989
30.12316
34.60212
38.62113
42.201
45.28942
47.88343
49.85247
51.36121
52.2673
52.61141
52.4377
51.77219
50.38536
48.42052
45.895
42.80194
39.17608
35.03513
30.46115
25.304
19.87746
14.07251
7.703456
1.182883
-5.567133
-12.88987
-20.21161
-27.42442
-34.89483
-42.49567
-49.98241
-57.59367
-65.04116
-72.15649
-78.89976
-85.40568
-91.84478
-97.69806
-103.1802
-108.061
-112.4781
-116.5297
-119.7443
-122.1616
-123.7934
-124.8336
-125.0265
-124.0137
-121.7288
-118.1136
-113.8586
-110.6308
-110.7406
-120.7731
-130.2916
-117.1691
-87.85318
-61.29791
-35.36443
-35.53172
-118.87
-171.5286
-142.4031
-86.44562
-46.66295
-28.24778
-15.84194
-3.585341
4.570496
2.341764
-0.3180291
-4.441394
-13.63792
-22.35625
-31.77648
-40.01823
-43.65762
-46.83917
-53.01438
-71.92698
-89.02714
-73.28288
-44.60846
-40.22821
-48.34892
-51.56014
-53.64416
-57.70696
-60.60078
-60.74974
-58.8956
-55.24326
-49.953
-44.31432
-39.01699
-34.5518
-30.96314
-28.67134
-27.44501
-27.317
-27.84346
-28.674
-29.45326
-30.10682
-30.44635
-30.13448
-28.72972
-26.47914
-22.6848
-18.30661
-13.65237
-9.222007
-6.510115
-8.290509
-13.59952
-20.08972
-28.00881
-44.75335
-80.59506
-126.4315
-133.9782
-88.64536
-40.38753
-43.532
-62.13056
-77.75144
-85.52976
-83.66897
-80.55953
-80.40058
-82.2604
-84.31241
-85.1308
-85.71349
-85.10497
-83.83044
-81.47999
-78.51757
-75.62079
-71.82427
-67.67709
-62.78611
-57.57134
-52.09647
-46.18486
-40.24964
-34.28044
-28.00296
-21.52668
-15.16272
-8.919557
-2.815964
3.354205
9.161888
14.97906
20.41713
25.59583
30.45195
34.82832
38.76014
42.26991
45.30406
47.9216
49.81438
51.29506
52.19224
52.5293
52.36133
51.7182
50.35204
48.37867
45.88807
42.85676
39.29947
35.25468
30.76441
25.63209
20.32417
14.66296
8.381427
1.907452
-4.728842
-11.8779
-19.108
-26.21903
-33.55488
-40.97032
-48.414
-55.9411
-63.20751
-70.25108
-76.84404
-83.25113
-89.6603
-95.37935
-100.8401
-105.6114
-110.0175
-114.1379
-117.2775
-119.7459
-121.6025
-122.6399
-122.7404
-121.6531
-119.4647
-116.088
-112.377
-109.6328
-109.7225
-117.0619
-123.5427
-112.1333
-86.28577
-62.27646
-39.23445
-43.24414
-123.7247
-174.866
-144.6829
-87.56433
-47.12572
-28.04232
-15.42653
-3.401605
5.15053
3.837126
0.01860496
-5.149088
-14.11925
-22.82572
-32.55148
-40.52639
-43.86521
-46.74228
-52.71776
-73.12015
-91.7211
-74.9262
-45.92654
-41.01009
-48.76989
-51.99585
-54.17834
-57.83596
-60.39008
-60.44975
-58.59051
-54.89973
-49.61425
-44.15991
-38.91053
-34.49778
-30.9306
-28.71045
-27.4252
-27.35497
-27.88685
-28.7475
-29.55019
-30.27454
-30.67049
-30.48433
-29.21322
-27.08303
-23.34585
-18.95122
-13.63335
-8.572802
-5.697747
-7.776811
-12.9977
-19.93424
-27.78144
-44.46412
-79.18924
-125.1809
-131.883
-90.63182
-46.73261
-47.16805
-61.80983
-74.84949
-81.81338
-80.95176
-79.01656
-78.92086
-80.34294
-82.25873
-82.47594
-82.95119
-82.23999
-81.10221
-78.99519
-75.8367
-73.12235
-69.45624
-65.48084
-60.5579
-55.41968
-50.29264
-44.53961
-38.37175
-32.57362
-26.67988
-20.36356
-13.83359
-7.711688
-1.996782
4.201181
9.798878
15.59179
20.79774
26.05687
30.9166
35.04507
38.86406
42.27806
45.2922
47.94998
49.71323
51.21241
52.08595
52.41116
52.25842
51.66354
50.28638
48.29776
45.79428
42.83841
39.36273
35.43853
31.15115
26.00379
20.78172
15.29266
9.348621
2.936817
-3.964667
-10.79376
-17.63788
-24.89914
-32.15529
-39.08744
-46.36452
-54.20617
-60.97506
-68.0259
-74.42528
-80.63534
-87.03951
-92.47664
-97.97948
-102.4638
-106.7185
-110.8842
-113.8385
-116.1751
-117.6355
-118.7797
-119.1538
-118.2027
-116.2827
-113.2349
-110.2471
-108.0599
-108.16
-113.3627
-117.0583
-106.781
-84.49781
-63.99468
-45.44631
-52.19259
-127.4381
-175.1191
-144.9051
-88.01058
-48.46373
-28.38543
-14.60609
-2.984694
6.481959
5.917992
0.6819557
-5.938856
-14.83755
-23.76712
-33.66345
-41.04412
-44.16779
-46.88745
-52.52458
-73.65015
-93.73169
-76.60148
-48.96802
-43.54894
-49.7975
-52.54608
-54.67394
-57.99109
-60.2333
2.224633
1.608239
-30.74065
-25.02787
12.55245
-21.43896
1.586149
1.254856
11.89504
-1.333453
-1.155283
2.014325
-0.1372558
0.9650476
1.174605
3.734163
-2.663546
-2.853477
1.194198
1.024406
-99.38753
2.080042
2.986469
-1.503219
1.951741
2.415548
2.017057
-0.8743809
-7.252701
0.994809
1.692894
-17.0323
0.9753101
1.308148
1.359683
-4.667338
-6.014834
0.2118244
-1.126584
-5.808201
-22.14992
2.778704
1.4418
3.905253
34.88998
1.805058
-8.539093
2.249676
-14.0426
-0.9535176
2.665722
-5.385876
-15.83089
1.072196
0.4064868
24.11935
-5.683082
1.903458
-13.41612
-24.73222
-0.7863072
0.05064365
-16.60723
1.958752
-6.114949
2.56401
-27.00644
0.4988671
0.5697929
1.552433
0.148187
-8.600645
9.615492
-39.55486
22.90827
0.6253489
4.838335
-2.275261
-1.468098
1.326092
-25.49041
0.4224733
4.031302
1.225345
-11.29386
1.659059
1.437924
1.184066
-43.24363
-1.547814
-18.09911
22.90753
-3.84397
1.245605
2.149678
2.339398
-10.65062
6.511829
-45.51375
2.335271
1.144873
1.134414
1.431222
-90.43654
0.1876364
-14.74606
-14.52915
1.692126
-2.532075
-12.31014
1.598308
1.385927
1.825919
8.147249
-18.17152
0.3697993
0.6585505
1.119893
20.86449
1.406024
1.919443
0.8286809
0.116229
2.30181
2.083583
-6.576522
0.5851035
-27.12495
2.605771
2.230473
0.509801
-1.321222
1.400237
1.062471
1.613429
-34.88359
0.332322
7.912058
1.370062
0.7258922
-31.32677
1.105751
-66.98447
1.732229
2.41205
-19.46425
0.5285257
-45.7546
0.6363023
0.2630919
1.016686
-16.11511
-62.94107
0.6033832
-13.32275
-53.39815
1.003527
1.19648
1.283597
-32.3024
1.81189
-34.56093
-6.40614
0.5867636
2.692799
-43.83211
-22.77303
2.566487
-27.73718
1.367156
1.960421
16.92931
3.105794
-33.33444
-7.395612
-0.6890381
3.189689
2.042343
-39.20937
-5.874472
16.76504
1.986534
1.199099
1.295901
4.190819
-47.76893
2.411545
0.5692147
-10.22887
1.773207
0.7341185
1.421112
-9.618723
-2.073889
1.023862
1.61266
1.789258
0.9546114
-5.020165
-34.51376
0.9403811
-10.61279
1.967871
-41.06006
1.79315
-3.804262
-7.409667
-1.406275
-9.326601
3.322174
2.020275
2.3176
-19.47199
-6.773125
1.312689
-4.226364
-12.28786
1.185918
4.137398
1.237049
2.41745
-19.19205
3.729108
-1.994736
-3.215197
-0.9457601
2.077654
8.701425
0.2782351
20.00698
-1.855129
-20.31589
4.429357
0.7332202
-72.86197
0.955064
28.00399
-8.697115
3.087183
0.7750955
0.9540228
1.732152
0.9418686
-7.722801
1.550691
-37.51412
1.636032
-38.2143
0.9059021
1.120216
-33.91697
1.662299
1.290882
1.141708
3.768572
-28.66194
1.826747
0.7465336
-26.43816
-5.306078
-1.993186
0.3728744
-13.28509
-1.160516
0.3553004
3.120512
1.553504
0.6035265
4.483884
-26.97204
1.014583
1.367949
13.50959
-0.3918799
2.417
4.136759
2.392112
-23.24098
-56.57202
1.068796
1.867391
1.591924
-12.94158
1.952705
2.447913
1.817469
36.25127
0.6171487
2.729921
1.88897
2.425066
0.6877056
1.861762
1.999917
-33.39603
1.205379
-20.53079
1.103464
1.601769
0.6414375
-43.85627
1.226003
-1.273088
-24.30601
0.3508186
0.3600015
1.776043
1.505511
0.9506128
0.3203998
-1.742889
1.423149
1.279131
1.782166
0.3905735
-12.78595
35.46992
-61.28869
-31.72452
-60.60304
-0.02846037
3.135063
1.235737
3.290116
0.2346391
-2.07945
1.038532
-6.493774
1.547491
-2.894713
18.99592
-14.21579
-7.891536
-73.14501
1.208848
2.694204
0.7957198
3.215584
-3.826316
1.089564
-41.03625
-0.01435747
1.474246
0.3508857
-13.82983
5.032569
-27.77877
0.5677864
-11.4318
0.5731842
0.4666956
1.429758
14.36
1.206929
0.08224829
-46.93026
-54.86505
3.157659
1.744743
2.915741
2.482649
-5.378818
-6.450952
2.971504
1.159818
2.825303
2.487109
2.096952
1.621706
2.122116
-2.811446
13.64562
-39.17941
1.376552
2.80053
1.824272
1.949424
2.26253
1.671225
1.87094
2.44619
2.368649
0.3066111
-9.509919
0.2376673
2.027631
2.28938
38.18069
2.851688
2.196327
0.101396
1.291109
3.006649
-41.17836
0.3861944
-0.4087994
1.6183
-4.044017
2.234781
1.434099
2.780717
0.9305285
-30.15444
-15.47001
2.372069
0.2957484
-32.53589
-53.33812
2.79082
1.487904
1.506865
0.8703604
1.85865
1.47504
2.702195
-0.122564
2.714131
-14.47261
1.118229
-16.12574
0.272876
0.6466152
5.006204
1.223658
0.5302317
-27.61893
1.175424
1.960275
-49.64497
-12.31362
-23.9289
2.239568
2.044077
1.67319
2.097192
2.72114
1.016001
-5.86936
0.5987779
1.114208
2.22197
1.409507
1.257099
1.179927
-4.385377
2.04996
-5.25822
2.219432
0.3063417
0.4236037
1.062607
-49.45468
1.221067
-6.315485
1.222124
2.566634
-3.1242
5.577824
1.934784
-21.07542
1.443939
-32.91595
0.9313445
1.235924
2.746978
1.318383
26.92734
1.138691
4.570182
-1.241069
-11.23822
-0.9589664
1.824996
8.640168
-11.90097
-4.379554
-11.99832
-31.12474
2.24079
1.273877
-9.880881
1.17016
2.223027
1.421573
1.998177
1.291426
1.178325
17.45081
1.321315
2.471761
0.7686489
-25.0458
-0.4071181
3.241039
-20.54888
1.624401
1.796932
4.670948
1.250578
4.501033
1.358895
1.545803
1.569721
-4.895556
2.952169
1.938863
1.261121
-0.9181614
-11.83208
-16.67866
-26.77056
4.860679
16.9625
-1.580704
2.576369
2.147423
2.596906
1.439517
1.791228
1.422571
1.691859
0.9374134
-9.010654
2.397003
2.021201
-0.1788284
0.4702757
4.179
1.052909
1.275089
-27.3799
0.03846074
-28.31389
0.5913397
4.921254
5.204316
4.138419
1.103157
2.333056
0.9195509
5.249603
2.128808
1.063132
1.954901
-45.01193
3.403854
4.534332
2.297626
-3.018065
8.660287
2.165599
6.432313
1.696032
-3.624593
1.883254
1.681264
1.604242
5.956199
16.87161
-2.056348
1.489343
0.979185
1.915573
1.999149
0.6973567
1.924408
1.784331
9.441715
32.84235
-6.76711
1.939051
6.246297
-0.3150177
-64.40359
1.385044
3.611713
1.94318
3.636299
1.253939
0.100171
-0.3696273
1.137095
6.722147
0.1966852
-3.051728
-23.33726
1.099497
1.400828
-82.49587
-3.801309
-0.6567168
-14.43776
2.855333
-1.759387
1.922176
1.027884
1.639143
-48.20827
1.896849
2.11312
1.980669
-1.881933
-0.5341351
0.6166119
2.001479
-13.68261
-6.429057
1.574596
-17.56502
1.031678
5.465058
1.279641
-34.55189
1.909098
9.676244
-15.5194
0.220085
1.337533
2.252488
4.882267
2.402387
-1.127344
1.536328
0.06799872
2.031331
18.88401
3.319374
0.8282988
1.270203
-2.292747
-3.96708
-13.92452
-14.89915
-13.26211
-35.78208
-8.458932
-16.26404
1.211905
-0.01295049
2.114888
1.92625
0.7527121
1.828388
-6.373531
1.574271
1.470738
2.027566
-16.98671
2.277831
26.58651
5.062451
-25.76458
-4.407989
0.4381104
7.863713
-2.620551
-19.1144
1.560505
2.154154
-7.674579
0.9890141
1.634015
1.100918
2.369007
0.527834
0.2486031
-17.7827
3.195309
1.751441
-1.753061
1.800985
1.679195
-86.61898
-1.702707
1.531425
5.902966
-44.98738
0.05725292
0.7112655
6.646515
14.86498
10.12187
2.818517
-13.72814
2.02074
-2.127227
1.175214
-2.420327
3.544273
2.257385
-17.15399
-5.511855
-57.06625
1.608318
0.7446858
2.222003
-30.97551
2.546885
1.415094
1.017563
0.7901997
-11.14603
2.697774
-2.446445
4.815839
-10.85343
2.688324
1.82729
-17.71418
-10.81194
1.661191
1.196784
2.515743
0.9751177
-1.243549
0.7253168
2.124792
-42.40125
1.254516
-0.8201678
2.354478
0.9387854
0.7166894
1.82756
1.51768
0.8360708
1.556519
-27.47735
1.982059
1.809163
1.660494
1.516247
1.856427
1.519792
1.258925
2.014322
2.692147
4.889559
-33.8218
1.606002
0.3482186
0.7842657
1.817381
1.052695
3.392708
1.375178
-54.02258
3.426763
0.2038647
9.941436
-1.201595
-5.163573
-10.53899
-22.6695
1.045312
-39.82562
0.05407141
-7.223745
-13.39152
-5.537328
-4.228564
0.0639871
2.837974
13.69921
2.17254
1.730639
-63.69516
1.927455
1.547564
1.757604
-10.3307
24.08713
4.907338
1.959575
3.138959
1.683749
1.079393
1.330007
-0.8984574
2.3473
2.835269
-0.8035081
1.906739
1.402394
5.29486
1.844334
1.93379
1.744519
2.605326
0.6719779
-0.2627627
2.532424
31.94319
1.828587
1.099148
1.331314
1.557799
1.457204
0.854848
-71.94746
1.209936
-54.80944
-4.51039
0.03741929
-7.600175
1.226156
-1.908645
1.284705
1.966723
1.69644
1.937491
-3.105917
-44.91777
1.871181
-0.6366376
1.00895
0.8966477
-0.4599322
3.125779
-12.41622
-3.506928
16.83086
1.138147
1.449217
0.4445673
0.3876929
2.678778
0.7130331
1.235617
0.983218
-28.05174
1.786375
9.275449
-32.15986
0.9949656
-3.219416
-2.364978
0.328973
1.342756
2.207039
-0.666389
0.8943864
-1.689807
4.022155
2.668323
3.395774
4.492125
-0.0609999
-14.11315
30.89818
1.223953
-2.374359
-1.771474
-54.83889
2.403223
1.876855
1.668427
1.289847
33.25874
0.1912402
1.554037
-0.2102604
1.732913
-15.19102
1.437626
1.587019
1.696433
-16.30173
-16.09243
1.546259
-0.4332073
-38.98915
1.268063
-2.612873
1.825584
-13.58466
6.048404
29.94593
1.914097
1.501109
-0.03335027
3.485267
3.864956
12.16242
-1.206452
1.7741
0.6231438
0.06891759
1.511359
1.302264
-1.483209
-4.410312
-34.46779
-21.84771
3.947582
-21.49516
1.215258
3.297283
2.012745
6.995915
-4.447175
2.562372
-8.210479
9.646733
-27.64053
6.937781
2.18946
1.604002
-7.082076
29.829
-4.480965
0.5624068
-1.862809
-25.00181
0.72222
1.035592
4.615791
1.397054
0.7747108
-22.87219
-1.449353
2.691143
-17.86695
-22.42888
0.4562938
-24.59945
-15.31413
-40.44477
3.808078
-45.02635
1.782845
-0.05275514
-13.52174
1.55054
-0.9794449
-33.50947
0.04159279
1.322405
0.6367487
2.106847
1.161916
-23.2974
-54.58872
1.051539
18.4685
1.236086
-11.14351
-11.67829
16.39473
-32.14441
0.3947109
1.05851
1.077216
-6.623581
-0.1139899
-7.471372
0.5635051
1.68338
0.8774565
-62.63624
-71.6259
1.992002
2.541482
3.521218
1.366829
1.424851
3.660381
1.626158
1.046326
1.541437
1.60165
0.8371285
7.164029
1.755132
-20.75377
1.404957
1.278087
-35.0494
2.103008
1.262736
-0.1736319
-31.19821
-3.581855
-2.621388
1.212874
-8.123433
-30.0998
36.42211
49.11075
2.343211
-0.0536408
-4.092774
7.188334
2.09165
0.9421976
11.58281
-35.56511
2.24623
1.469288
-0.3072042
3.061638
1.619144
-2.909543
-1.302295
-17.50789
-62.233
2.413221
2.624023
2.014311
2.697599
2.867314
-69.80958
1.70112
1.825578
1.442628
1.328805
-7.798976
2.213348
-28.95579
-16.61344
2.139725
2.528482
2.043943
2.32828
-16.96416
2.286958
0.695339
-42.50252
1.11896
-48.89205
-21.35518
0.4119216
-0.1205961
-56.22503
-96.19017
1.814981
3.307017
2.806379
1.418115
1.403478
-2.533369
1.275257
1.568982
1.241922
0.5635758
1.828683
-1.364024
0.797317
1.549309
1.387404
1.020078
0.8971156
1.395411
0.7059986
1.163565
1.462132
-3.39526
0.8885052
1.304054
4.706349
0.1083646
2.538663
-5.520402
0.3526281
-3.265981
-23.77125
-16.06231
1.259227
1.475813
0.8175057
1.138515
-31.26105
-12.46797
15.38168
-34.03505
24.27893
0.9568937
3.664802
-18.17724
-23.73218
0.5302879
4.291138
-75.80073
2.362741
1.191284
-10.71872
1.465743
7.387628
1.390046
2.499898
6.005532
-0.3757316
-31.75924
2.424215
-6.447423
35.43605
-13.35369
-7.465626
1.853957
3.050587
2.788612
9.000013
2.597999
8.267114
0.6213293
-6.036381
-4.417276
-16.69053
-2.508227
1.701488
-13.80244
1.510584
-92.54847
9.245802
1.626228
19.66558
1.368367
29.9086
-10.6738
1.810689
1.358207
-0.1385866
15.09931
-29.88156
-21.96306
1.222007
1.523032
1.165406
1.359099
3.664365
-6.363046
-4.797318
1.069679
-25.48747
1.837139
16.60144
-36.21439
2.640161
-51.15798
-11.37722
-1.027058
-39.62901
38.46712
0.3567568
1.502154
-41.2926
1.487479
1.102444
0.002249828
-0.08739917
-13.54971
-82.194
-17.82579
1.311627
2.537921
1.805754
1.539268
1.646791
2.687924
10.15868
4.456775
0.6970352
1.643436
1.679535
-5.31595
-28.6248
1.162736
0.9837836
1.426359
-36.20373
0.2244591
1.191254
1.178692
-0.7390544
-25.31062
2.460114
1.018341
2.573658
1.559823
1.580113
-19.58422
1.465676
2.323345
-73.44774
23.66924
-2.142355
1.863979
4.40369
-1.300937
1.368111
0.9914021
1.219851
0.5191381
1.853535
-13.75505
1.470228
-17.90039
1.67346
-0.5298041
1.156863
1.770148
-0.6229811
0.6345602
-7.378976
-12.78879
-18.24044
-12.98741
1.221365
1.432386
-0.5719199
-0.2826551
0.9144255
-22.24185
2.420585
1.214811
0.6804204
-4.49258
1.238458
-6.483536
3.31265
-45.03848
0.8534907
-0.8808572
1.207852
-55.02391
0.8673505
-36.8956
1.231791
1.241069
0.5840049
0.5443352
3.720134
-35.66117
-31.96827
1.045276
1.345017
-11.4365
2.148516
3.90015
3.349121
2.50479
1.369455
0.9702884
1.665234
-53.49346
-1.753834
-2.510272
0.8115954
1.596884
-0.8425439
1.012227
1.244011
1.391317
-6.872421
0.3375453
-0.8634169
8.810906
1.826544
-13.93789
1.409516
-1.674769
-1.286835
-18.73289
1.113564
0.7786339
0.2406683
-20.64371
-77.55679
-43.62053
1.194482
-22.09027
2.262305
-11.80869
-3.199447
1.487401
17.40323
2.258852
-57.16678
-79.66269
1.529169
2.141639
-1.648986
1.981903
2.153953
1.612577
-2.059529
-2.561147
1.591782
-18.74394
-0.2175904
1.328578
0.6212537
2.490946
-0.7644068
1.297612
-5.478427
1.541516
1.038777
-26.90617
1.121445
3.47727
1.800906
1.536191
-37.0067
-3.638117
-1.469884
-9.652875
-2.938091
-0.2672598
-31.99438
-1.120608
-1.730091
-1.364507
0.5606971
13.31292
-59.36788
-12.48884
-0.07546576
0.1757654
21.47455
-2.420507
1.734925
1.926329
0.09786339
2.164524
-36.3973
-32.81221
-20.8488
10.7966
8.364528
1.328607
-54.64828
-49.73892
-75.15642
3.142909
-2.324742
0.4412546
-1.193509
1.079637
0.8405446
1.463058
1.854045
2.00901
2.458273
2.079237
1.376594
-29.14682
1.690313
2.096904
0.0759394
-21.00003
20.81169
0.6813043
-20.56788
-38.5776
-5.512645
5.713164
-6.554036
-3.908374
-14.18119
-67.5895
0.4778585
-30.11432
1.703808
-40.79715
-14.43714
-0.5423603
1.885828
-23.34923
1.977033
15.34749
1.156293
1.291448
3.428505
0.74183
2.346013
1.297721
0.9095274
1.44345
2.317929
-41.34014
1.711943
1.41548
-7.790136
2.088822
2.120818
-26.62301
-13.25237
-33.1006
1.177803
2.717086
20.99554
1.046051
1.569131
-20.73306
0.5376638
-52.4352
-0.5762542
1.30504
1.414628
1.5018
-6.182895
3.267423
2.413782
-2.673838
0.9423879
1.253037
1.268293
25.39567
2.685445
-10.25638
2.756228
-15.15527
1.163513
-84.68388
1.227713
1.985013
4.219503
2.966607
2.213065
-58.56604
-64.01156
-63.10062
0.3456108
-1.868754
-28.73947
2.461567
3.161811
0.9145215
1.542718
-9.506981
-38.55499
2.248669
-52.372
0.7712125
1.776826
0.9842879
-13.2746
10.34192
0.7482703
1.242706
2.432301
2.112202
-0.4836021
15.59147
0.8653466
-9.891327
1.00297
2.376175
0.9629351
1.6832
-5.976079
-0.3690994
-0.7649977
-11.14818
2.453079
0.503342
-22.29137
2.267958
-5.053982
-7.276465
-4.70716
1.82966
1.704051
1.316219
0.2317803
2.437617
-76.2358
27.46942
-3.345142
1.309871
1.814946
-33.33864
0.8196293
2.514497
-4.136627
2.983384
-0.006853859
1.138239
0.7415152
-59.93925
-0.3884622
22.20795
37.66606
2.037039
-3.721649
0.9699525
2.479296
1.517793
2.587385
34.81353
-59.1939
1.637848
5.552619
2.291641
-19.36758
-0.1767033
-2.575304
-0.1811419
0.9197798
2.608005
-12.4545
1.495353
2.604217
-7.297106
-18.14924
-14.06267
-2.817865
0.5587366
-82.52224
26.71278
-25.33462
0.5361479
-5.368752
-1.203161
1.236871
3.269868
33.17943
2.413445
0.8904782
-19.30841
1.262693
0.9649607
-35.45847
2.213223
2.626348
1.739245
1.824125
20.49439
2.089403
2.864385
-1.085898
-10.47256
-7.135831
20.15696
3.753171
6.43571
-59.83954
-34.67167
1.51477
0.7915744
-27.83203
-18.4247
-40.76965
4.139251
0.5212967
0.7354386
1.593293
-17.92176
-16.78218
-0.0789896
-12.26598
-0.3089353
1.749233
1.685253
0.09339456
-61.06351
-19.7081
-0.2987448
4.364339
0.2159912
1.016879
2.675184
1.91824
1.225742
-0.0009771339
-47.07729
-23.9303
-2.274296
-1.758721
1.147322
2.823034
2.913084
-11.19611
4.259334
5.097568
1.423892
36.45173
1.801028
1.319739
1.42028
1.649194
-9.252071
-18.12498
-29.70303
15.64724
1.663985
2.005326
1.446715
1.585099
0.8141445
1.131569
1.379582
1.972833
0.6570872
0.6873451
0.9726456
2.042897
13.07921
8.763402
0.6128334
1.505101
-1.539349
-1.126559
1.442179
-9.252705
13.43565
-50.70966
-28.24213
1.886677
1.988808
-79.36344
44.14702
-94.58432
2.804942
1.809381
5.433044
-10.64686
10.54058
-25.13036
1.517193
4.897928
0.368465
3.255931
1.477884
0.858276
-0.1227798
-57.5026
3.503407
1.843948
-0.8729857
1.968714
-55.45898
-29.98399
-12.21711
1.726666
16.62625
0.8480754
2.261013
2.33217
0.7075155
-41.97499
1.532182
4.1042
34.21903
1.991387
1.861141
1.701062
29.06739
8.277438
2.078379
3.692588
-7.459539
1.739325
0.7309539
-61.16264
1.244229
-91.60815
1.538739
-0.6132401
46.15854
1.821143
0.8041121
1.608441
3.590855
2.090667
2.685811
-43.68811
42.30379
2.818966
-1.673497
46.86205
1.933391
1.622033
0.8930388
-24.03674
1.201883
-1.656976
-4.268624
0.9851572
-7.894489
-44.46104
1.366746
1.409808
1.244101
1.946303
20.28664
2.282494
1.269638
1.845249
0.9065479
0.3214639
0.3547024
0.4119209
1.625355
0.9834378
3.427654
-18.53709
-84.33667
-21.44065
-21.40282
-20.38684
-0.7422996
5.518749
0.7835699
1.558652
4.680211
-41.33692
-5.758832
28.27723
-21.788
1.58585
1.730441
2.747524
-8.91588
-10.39975
-0.925168
2.713604
-62.39194
2.333315
-0.1742221
0.9814879
1.587397
2.058613
1.16241
1.388557
1.737947
0.3498614
1.816385
3.590148
-7.377988
0.6076221
0.6503184
1.499508
-32.15909
-13.10881
1.657449
1.292473
1.347178
-13.22394
-37.80699
1.987388
2.234642
0.8528423
1.414419
9.670762
17.95205
1.209141
0.9980396
1.991864
6.228624
-67.08568
-66.74488
0.8218635
-6.791139
2.134199
-4.370568
13.32396
1.661096
-2.793743
1.635862
-11.17079
-16.4041
0.6789147
-13.72291
-1.487218
0.8007632
29.66205
2.93049
-6.088274
2.900685
2.544536
2.291905
-24.01015
2.905282
3.41412
-20.33691
0.9680007
-2.658061
-14.1369
2.232273
6.778417
9.71506
-0.4827806
-44.33741
1.88809
38.97797
1.750928
8.388232
1.378514
-10.83138
2.473933
2.550772
0.8130946