/*--------------------------------*- C++ -*----------------------------------*\
| =========                 |                                                 |
| \\      /  F ield         | OpenFOAM: The Open Source CFD Toolbox           |
|  \\    /   O peration     | Version:  2406                                  |
|   \\  /    A nd           | Website:  www.openfoam.com                      |
|    \\/     M anipulation  |                                                 |
\*---------------------------------------------------------------------------*/
FoamFile
{
    version     2.0;
    format      ascii;
    arch        "LSB;label=32;scalar=64";
    class       volScalarField;
    location    "0.24";
    object      p;
}
// * * * * * * * * * * * * * * * * * * * * * * * * * * * * * * * * * * * * * //

dimensions      [0 2 -2 0 0 0 0];

internalField   nonuniform List<scalar> 
15536
(
-29.36273
-29.14679
-29.03548
-29.00284
-28.92054
-28.6517
-28.02768
-26.87076
-25.50174
-23.96484
-21.2699
-20.50616
-24.05106
-25.94998
-23.71534
-19.99801
-22.84134
-32.69267
-44.75929
-57.08093
-65.47522
-60.67686
-38.5135
-10.51779
6.002354
-1.648108
-19.87833
-30.98488
-40.05295
-63.51037
-112.7266
-154.3088
-131.6017
-76.76798
-82.4525
-101.2643
-103.2096
-104.3449
-110.0938
-115.3525
-119.1095
-121.3429
-122.1108
-121.7766
-120.8397
-119.0151
-116.3894
-112.8308
-108.8647
-104.6193
-99.71994
-94.26811
-88.20515
-81.79402
-74.97495
-67.82075
-60.67921
-53.45628
-45.89585
-38.18809
-30.63363
-23.24392
-15.90403
-8.672558
-1.688669
5.145555
11.6597
17.82496
23.53418
28.79282
33.56125
37.8457
41.60859
44.77526
47.31653
49.34209
50.72896
51.52636
51.81399
51.59254
50.56568
48.91553
46.71029
43.936
40.61522
36.77218
32.46691
27.61967
22.38246
16.80029
10.72748
4.336225
-2.306433
-9.37045
-16.60653
-23.81588
-31.2032
-38.75541
-46.29426
-53.90193
-61.4238
-68.67198
-75.59152
-82.26515
-88.82303
-94.95501
-100.6267
-105.7909
-110.4596
-114.7103
-118.2444
-120.9801
-122.9688
-124.1992
-124.5578
-123.7815
-121.6796
-117.9186
-112.6853
-107.0829
-106.1823
-104.011
-84.76828
-79.88161
-139.0099
-162.1457
-116.7772
-64.50138
-40.91112
-32.36661
-21.4022
-2.991423
4.968362
-10.35789
-36.36771
-59.97971
-66.81726
-61.65462
-50.24416
-37.21518
-27.94734
-27.84051
-29.54901
-27.71801
-23.77551
-26.89806
-29.40166
-31.27889
-32.8561
-33.7522
-33.85285
-33.32997
-32.47415
-31.62815
-30.93318
-30.28286
-29.75881
-29.36189
-29.14451
-29.03131
-28.99674
-28.91144
-28.63993
-28.02023
-26.87407
-25.50541
-23.98171
-21.27933
-20.50367
-24.0555
-25.93883
-23.72361
-20.03116
-22.86362
-32.67387
-44.69839
-57.04084
-65.4157
-60.72043
-38.53326
-10.55629
6.117337
-1.800132
-19.97609
-31.00575
-39.98856
-63.43463
-112.7459
-154.4347
-131.5109
-76.68957
-82.39134
-101.323
-103.1891
-104.0469
-109.3955
-114.3293
-117.8147
-119.9022
-120.5979
-120.2148
-119.2556
-117.4207
-114.8053
-111.2646
-107.3208
-103.1131
-98.25457
-92.85151
-86.83996
-80.48724
-73.73356
-66.64631
-59.57221
-52.42166
-44.93896
-37.3046
-29.82398
-22.5089
-15.24243
-8.080186
-1.163638
5.601403
12.04826
18.15212
23.80503
29.01051
33.73142
37.97395
41.70004
44.83759
47.3541
49.36111
50.73585
51.52576
51.81028
51.58927
50.56876
48.93356
46.74831
43.99913
40.709
36.90235
32.63821
27.83753
22.65369
17.12541
11.11167
4.787103
-1.789558
-8.786651
-15.95176
-23.08775
-30.40263
-37.87858
-45.34108
-52.87319
-60.32073
-67.4946
-74.34325
-80.95363
-87.45073
-93.52384
-99.14544
-104.2623
-108.8912
-113.1114
-116.6191
-119.3428
-121.3394
-122.5906
-122.9913
-122.2899
-120.341
-116.8632
-111.9722
-106.7838
-106.1587
-104.0727
-84.72182
-79.80222
-138.9315
-162.2887
-116.8042
-64.41962
-40.84859
-32.39217
-21.49475
-3.120001
5.04313
-10.34124
-36.41362
-60.02806
-66.77208
-61.63028
-50.20508
-37.21454
-27.98244
-27.86396
-29.54606
-27.70403
-23.77221
-26.89018
-29.40351
-31.27953
-32.84599
-33.72887
-33.82752
-33.31387
-32.46737
-31.6272
-30.93454
-30.28378
-29.75891
-29.36091
-29.1426
-29.02794
-28.99392
-28.90794
-28.63771
-28.02749
-26.899
-25.51421
-23.9367
-21.25495
-20.47081
-24.14918
-25.99626
-23.7682
-20.11333
-22.92432
-32.67144
-44.63754
-57.03423
-65.53273
-60.99159
-38.97779
-10.95356
6.275912
-1.943082
-20.03447
-31.00748
-39.99132
-63.53014
-113.0993
-155.1131
-132.0516
-76.83025
-81.83135
-100.2264
-102.4543
-103.5615
-108.5457
-113.2502
-116.6955
-118.8752
-119.6307
-119.2671
-118.3437
-116.5356
-113.9537
-110.4308
-106.5009
-102.3249
-97.48241
-92.10891
-86.12393
-79.80571
-73.09333
-66.02346
-58.97985
-51.87394
-44.41907
-36.81692
-29.37029
-22.09638
-14.86963
-7.738511
-0.8648489
5.870125
12.28169
18.35292
23.97467
29.15132
33.84313
38.05943
41.76201
44.88183
47.37822
49.37199
50.73744
51.52017
51.80078
51.57955
50.56518
48.94314
46.77273
44.04129
40.77248
36.98949
32.75241
27.97565
22.82269
17.32692
11.34129
5.052016
-1.487579
-8.454112
-15.58236
-22.6749
-29.95534
-37.39739
-44.81603
-52.32299
-59.73543
-66.87883
-73.69836
-80.26753
-86.74133
-92.77321
-98.36926
-103.4597
-108.0637
-112.2706
-115.7535
-118.45
-120.4168
-121.6405
-122.0078
-121.2555
-119.2069
-115.7583
-111.1098
-106.2814
-105.3759
-102.9632
-84.13678
-79.93356
-139.5338
-163.0101
-117.1831
-64.50404
-40.85967
-32.39856
-21.54434
-3.207393
5.139734
-10.62421
-36.85835
-60.32023
-66.89908
-61.64825
-50.18762
-37.2403
-28.0736
-27.93371
-29.60417
-27.74917
-23.75598
-26.84329
-29.38501
-31.29412
-32.85189
-33.73393
-33.82332
-33.31074
-32.46944
-31.63221
-30.9398
-30.28626
-29.75935
-29.35895
-29.13934
-29.02229
-28.9901
-28.9035
-28.63405
-28.02621
-26.93121
-25.52195
-23.88469
-21.19091
-20.4248
-24.33388
-26.11349
-23.85687
-20.25532
-23.0287
-32.69681
-44.59866
-57.09881
-65.81781
-61.55562
-39.98608
-11.86906
6.640001
-1.826516
-19.85612
-30.90009
-40.06743
-63.76596
-113.5922
-155.8627
-132.9006
-78.14579
-81.59854
-98.49242
-101.097
-102.7796
-107.3685
-111.7475
-114.9742
-116.9674
-117.6248
-117.2037
-116.2891
-114.4891
-111.9614
-108.4713
-104.5776
-100.468
-95.70483
-90.41549
-84.51071
-78.27434
-71.65327
-64.67526
-57.71638
-50.70597
-43.35878
-35.84027
-28.47855
-21.29635
-14.15971
-7.106821
-0.3196142
6.341125
12.67907
18.68781
24.24688
29.36555
34.00638
38.17941
41.84416
44.93683
47.4033
49.37957
50.73334
51.50708
51.7827
51.55986
50.5513
48.94765
46.79792
44.09161
40.85492
37.1104
32.91999
28.18716
23.09451
17.65923
11.7325
5.521766
-0.9440879
-7.844313
-14.8793
-21.88285
-29.08402
-36.43133
-43.75542
-51.17276
-58.49222
-65.53375
-72.25174
-78.74078
-85.13113
-91.069
-96.58903
-101.5961
-106.1337
-110.2812
-113.7208
-116.3726
-118.3078
-119.5368
-119.9372
-119.2742
-117.4466
-114.2106
-109.9119
-105.4685
-103.9415
-101.193
-83.88365
-81.2802
-140.4308
-163.8252
-117.658
-64.76647
-40.95124
-32.3021
-21.35599
-3.021579
5.60079
-11.31509
-37.83793
-60.93297
-67.21035
-61.75564
-50.23418
-37.32518
-28.22287
-28.04527
-29.70698
-27.86643
-23.76323
-26.79037
-29.36439
-31.31492
-32.85799
-33.71378
-33.81655
-33.31339
-32.48002
-31.64513
-30.95095
-30.29127
-29.76017
-29.35681
-29.13583
-29.01553
-28.98842
-28.9032
-28.63915
-28.04365
-26.97546
-25.53909
-23.84495
-21.11994
-20.41578
-24.60096
-26.30424
-24.01353
-20.50101
-23.20304
-32.77519
-44.62165
-57.3469
-66.48307
-62.60536
-41.6294
-13.34815
7.055901
-1.269138
-19.29045
-30.64895
-40.31828
-64.12267
-114.0409
-156.1661
-133.5989
-81.15036
-82.62013
-96.94454
-99.66117
-101.8492
-106.1334
-110.2791
-113.4058
-115.4527
-116.2226
-115.7697
-114.8785
-113.0472
-110.5467
-107.0637
-103.1405
-99.09717
-94.33441
-89.0897
-83.202
-77.0175
-70.4663
-63.51463
-56.60915
-49.68766
-42.4077
-34.93913
-27.64365
-20.54802
-13.48779
-6.490914
0.2122671
6.814006
13.08385
19.03051
24.52289
29.58836
34.17782
38.30545
41.92453
44.98729
47.42099
49.37713
50.71841
51.48163
51.75063
51.52283
50.51905
48.94247
46.82046
44.14294
40.9411
37.23554
33.09378
28.40351
23.37794
17.99951
12.11786
5.992119
-0.3991851
-7.26066
-14.21439
-21.12976
-28.27289
-35.5533
-42.78688
-50.15303
-57.41234
-64.38895
-71.0477
-77.47464
-83.83388
-89.71262
-95.20812
-100.1773
-104.6846
-108.8563
-112.2498
-114.9066
-116.8718
-118.1022
-118.497
-117.7635
-115.8604
-112.699
-108.658
-104.5059
-102.4299
-99.61996
-84.93533
-84.38935
-141.1289
-164.074
-118.0649
-65.13947
-41.22349
-32.07256
-20.78697
-2.431471
6.188103
-12.43489
-39.4089
-62.01954
-67.87559
-62.07837
-50.41856
-37.51172
-28.44536
-28.17305
-29.84891
-28.06138
-23.83197
-26.76398
-29.3638
-31.34853
-32.88175
-33.72925
-33.82521
-33.32986
-32.50461
-31.66951
-30.97189
-30.30244
-29.76337
-29.35569
-29.13259
-29.0079
-28.99076
-28.90903
-28.65542
-28.07436
-27.03425
-25.57626
-23.84435
-21.09484
-20.5146
-24.97246
-26.59133
-24.27444
-20.91761
-23.46236
-32.95648
-44.77752
-57.88431
-67.69019
-64.35215
-44.01532
-15.60571
7.110401
-0.3064725
-18.21336
-30.30685
-40.87198
-64.3313
-112.6818
-152.8768
-132.2275
-84.84623
-84.50387
-95.50057
-98.13042
-100.5651
-104.4385
-108.2446
-111.1031
-112.9871
-113.5995
-112.9911
-112.1448
-110.4339
-108.0645
-104.631
-100.7443
-96.85778
-92.18117
-87.06833
-81.27425
-75.18267
-68.74528
-61.87807
-55.0909
-48.30562
-41.12385
-33.74528
-26.56807
-19.58232
-12.62824
-5.711544
0.8711734
7.396696
13.56963
19.42064
24.83941
29.8515
34.37617
38.44494
42.00043
45.03612
47.42913
49.35638
50.68666
51.43666
51.69614
51.4607
50.46598
48.91837
46.83378
44.19326
41.03408
37.37704
33.28808
28.64154
23.71282
18.41366
12.56805
6.543847
0.2847352
-6.519956
-13.37943
-20.16001
-27.20012
-34.39193
-41.50591
-48.76637
-55.91886
-62.78369
-69.31332
-75.63303
-81.91816
-87.66002
-93.06903
-97.91947
-102.3325
-106.4208
-109.721
-112.2731
-114.0671
-115.314
-115.754
-115.1945
-113.5144
-110.5869
-106.9327
-103.1798
-100.8197
-98.1614
-86.9186
-88.17588
-139.6222
-160.5501
-116.5866
-65.35923
-41.80178
-31.79755
-19.86029
-1.554169
6.497564
-14.24303
-41.656
-63.73779
-69.03602
-62.7378
-50.81637
-37.8122
-28.76838
-28.34368
-29.98957
-28.32569
-23.99752
-26.78968
-29.39106
-31.4022
-32.92303
-33.75863
-33.85488
-33.3674
-32.54962
-31.7105
-31.01012
-30.32579
-29.77147
-29.35772
-29.13071
-29.00208
-29.00406
-28.92936
-28.69269
-28.13251
-27.12359
-25.64009
-23.90649
-21.17251
-20.78785
-25.42823
-26.92801
-24.6128
-21.42641
-23.71672
-33.15608
-45.11023
-58.83745
-69.6244
-67.03268
-47.25902
-18.84184
5.980106
0.6301539
-17.30433
-30.17953
-41.7633
-63.91117
-107.5467
-141.9861
-126.1859
-87.45048
-86.09686
-93.94834
-96.57818
-99.1679
-102.6812
-106.2363
-108.9157
-110.7754
-111.5517
-110.8813
-110.1809
-108.1559
-105.8327
-102.4035
-98.45744
-94.69566
-90.01238
-85.03146
-79.26463
-73.19579
-66.90338
-60.16959
-53.45401
-46.73606
-39.70546
-32.47034
-25.38016
-18.44434
-11.68107
-4.838639
1.597874
8.048858
14.0868
19.84353
25.25304
30.1524
34.57908
38.56704
42.0624
45.12063
47.42528
49.31601
50.63488
51.36493
51.61314
51.38111
50.40334
48.84678
46.79354
44.20308
41.10225
37.53004
33.51227
28.88792
24.06237
18.89407
13.12858
7.144279
0.9908795
-5.649242
-12.43161
-19.11243
-26.02612
-33.04196
-40.1148
-47.28908
-54.27052
-61.0634
-67.44399
-73.6624
-79.91426
-85.51899
-90.90212
-95.63685
-100.0248
-104.1659
-107.3868
-109.9692
-111.9854
-113.2409
-113.6733
-112.9694
-111.3119
-108.5006
-105.17
-101.7367
-99.18117
-96.58189
-88.59333
-90.71669
-133.1356
-148.9303
-111.274
-64.87761
-42.70949
-31.70846
-19.09332
-0.9538345
5.774054
-17.10898
-44.67641
-66.25406
-70.89518
-63.91847
-51.42008
-38.11238
-29.1477
-28.55157
-30.11523
-28.59997
-24.30143
-26.87373
-29.45867
-31.48981
-32.99803
-33.82382
-33.91631
-33.43583
-32.62491
-31.78089
-31.07785
-30.35949
-29.78302
-29.36614
-29.13522
-29.01106
-29.04096
-28.98332
-28.77236
-28.2425
-27.25964
-25.79519
-24.06945
-21.41402
-21.27307
-25.9309
-27.45273
-24.73159
-21.58366
-23.92885
-33.11999
-45.40439
-60.06457
-72.43778
-70.70437
-51.53158
-23.81564
3.13133
0.9513731
-16.97344
-30.18257
-42.49546
-62.55558
-98.94935
-127.1574
-116.7395
-88.39255
-86.72294
-92.15842
-94.74419
-97.24361
-100.2481
-103.4916
-105.8455
-107.4564
-108.3546
-107.2397
-106.5512
-104.9005
-102.7009
-99.54373
-95.32123
-91.79607
-87.26739
-82.49336
-76.69313
-70.71585
-64.82469
-58.27255
-51.29147
-44.77118
-38.17425
-31.11693
-23.83484
-17.03829
-10.71187
-3.836356
2.36754
8.790576
14.57224
20.42827
25.8327
30.45227
34.7512
38.63102
42.11831
45.2197
47.36317
49.26768
50.55475
51.25979
51.50722
51.29148
50.29109
48.73014
46.67622
44.14737
41.11339
37.6431
33.80144
29.16279
24.41011
19.40501
13.9402
7.998705
1.610554
-4.722946
-11.17103
-17.97937
-24.81656
-31.37507
-38.30274
-45.75787
-52.27336
-59.07015
-65.26426
-71.28773
-77.53641
-82.86308
-88.28632
-92.74846
-96.97703
-101.1683
-104.2097
-106.6806
-108.3614
-109.5703
-110.1366
-109.6129
-108.1708
-105.5706
-102.753
-99.76183
-97.25649
-94.76431
-89.24141
-91.32665
-122.9108
-133.6136
-102.6401
-63.08127
-43.52176
-31.76984
-18.83316
-1.438723
3.254445
-21.48706
-48.42753
-69.66102
-73.7316
-65.60684
-51.99172
-38.51811
-29.06668
-28.65367
-30.12052
-28.69043
-24.76498
-27.07697
-29.58095
-31.62671
-33.13172
-33.95502
-34.02836
-33.55315
-32.74991
-31.91058
-31.17545
-30.37149
-29.79512
1.403745
0.02064903
-40.67964
-8.95668
10.34294
-8.426642
0.08605921
-0.8175913
8.455702
-1.68632
-2.948601
-0.2075965
-0.9853239
-0.1699069
-0.2560549
1.811278
0.04618634
-2.671955
-0.1322325
-1.068412
-20.71439
-0.02740185
1.034314
-1.796312
-0.03180776
0.0392024
-0.8911983
-1.2865
-6.002744
-0.0384471
-0.3385131
-23.32243
0.01073998
-0.01017064
-0.02623591
-4.071551
-0.01304807
0.1405579
-0.005142492
-4.936646
-19.20788
1.804637
0.73912
3.416645
30.83527
-0.04793515
-0.0459748
0.05135457
0.1273572
-1.468106
0.01516715
0.003109938
1.15825
-0.02926923
0.002200151
19.78235
-1.579789
0.02313565
-11.17865
-15.42022
-1.229629
-0.01177142
12.3206
-0.1735161
0.3410416
0.06938153
-35.51975
0.000277839
0.01182119
0.01189011
-0.7058573
-0.02578237
0.2651815
-57.16816
22.35979
-0.08302667
3.660974
-2.094983
-0.02641763
-0.136471
-15.47865
-0.003653879
2.436699
-0.02361852
-8.262374
0.02566934
0.02720106
-1.032059
16.83625
0.006846965
-13.67321
23.92091
0.03548074
-0.03092282
-0.004012467
0.09198327
3.879073
5.737994
-53.99707
0.06182686
-0.723176
-1.018261
-0.03230629
-83.04305
0.01741922
-20.16138
0.007096592
-0.0805727
-5.923265
4.219184
-0.7256542
1.390467
2.729936
7.129894
-25.43855
0.0113905
-0.001872066
-0.002963778
22.59608
-0.1779678
0.3450454
-0.2236757
-0.5169139
-0.01060245
0.0126087
3.32949
-0.5521212
-38.47539
0.2023624
0.01546192
0.0144861
0.00842056
-0.03766034
-0.3084118
0.03598026
-24.78291
-0.118512
4.633893
-0.5875852
-0.003929886
-41.03291
0.2008449
-60.81751
0.9491162
0.03199506
0.01754264
-1.534289
-39.45357
-0.03093416
-0.6799404
0.06896672
-21.98837
-30.49112
0.008207281
0.6037018
-56.5538
-0.04668384
-0.01665679
-0.0156156
-28.22383
-0.0305
-26.00563
1.907698
-1.88046
0.1815661
7.686078
-19.66812
1.383904
-36.52336
-0.01532802
0.04736033
-5.998935
0.7583073
-44.19502
-5.833632
2.749057
1.170513
-0.02850564
-52.84845
-0.009651855
14.88434
-0.3779914
0.003308496
-0.1275344
4.081805
-42.91187
-0.00524803
0.03923218
0.8397719
-0.3073501
-0.4124369
-0.6492208
-6.258258
-2.16919
0.01120929
-0.1268058
-0.003209902
0.5088311
-2.42343
-30.58944
-1.209206
0.01682099
1.114017
-5.566117
0.1465079
-2.534064
-6.237407
0.02065889
-7.851327
0.006808961
-0.1079274
0.00348185
0.4080781
0.3700081
-0.01836111
-9.723784
-9.969381
-0.8606033
8.012787
-0.2154577
0.06914699
0.153915
2.033448
0.0183461
-2.980247
-2.891718
0.01133221
7.682326
-0.0190493
17.23642
-5.573383
-41.93275
1.798022
-0.01065543
-76.09817
-0.1164993
24.06011
0.02541007
2.095772
0.3227117
-0.3421358
-0.3678732
0.001830114
-12.72377
-0.4394596
8.313574
-0.05758659
-49.51538
-0.02677545
0.6180078
-29.18724
0.8124913
-1.088266
-0.9823989
2.207027
-23.40561
0.9703843
0.05792786
21.54733
-4.037173
-7.150704
0.0006981224
0.1349042
0.01623462
-0.4052897
1.237812
-0.1140012
-0.01189835
-2.30873
-23.48226
-0.007276953
-0.1061132
12.17489
-1.126535
0.03729061
2.505425
0.8984196
-30.48318
-85.19839
-0.2935868
0.00378245
0.5565798
0.007919633
-0.1950694
0.02795929
-0.02585359
37.35239
-0.5407482
0.8667963
0.00566411
-0.06295859
0.008732722
-0.04102974
-0.0178696
-43.9774
0.0324075
-4.730751
-0.03899265
0.3573835
0.1273236
-39.18568
-0.008901576
-0.0006312859
-21.01089
-0.09130598
0.01030204
0.01110003
-0.04064453
0.03391213
0.02835163
0.9133729
-1.260619
0.00109003
0.08284084
-0.2654185
-10.89556
34.49602
-45.67245
-30.88172
-78.51167
-0.3886124
-0.02006717
-1.325444
0.004192085
-0.003671703
0.008844766
0.01342159
-0.002859547
-0.05977522
2.018679
18.72577
0.03453506
-6.657256
-31.9736
-0.002434168
0.6301525
-0.04429058
0.007140411
-2.316343
-0.009706603
-53.13511
2.183843
0.9235187
-1.478099
-11.7245
4.36174
5.598438
-0.5336963
-9.703604
0.02235749
-0.0214842
0.007436412
12.45671
-0.02869273
0.3527595
-45.97777
-49.35586
-0.03338367
-0.06695853
0.1206392
0.01072606
0.05158356
-0.005129036
1.207737
-0.951234
0.7591038
0.4293772
-0.0217865
-0.4187816
0.02635585
-2.441829
11.6225
-34.90184
-0.04077678
0.8988793
0.9581882
-0.01105634
0.08855363
0.5449607
-0.329741
0.01575516
0.1785552
-0.005866433
-16.04119
0.007023492
-0.002282868
0.03846716
39.24972
1.35966
0.003513643
0.02510792
-0.1892515
2.232291
-48.24278
-0.006374005
-1.065174
0.9059788
0.5046074
-0.07295913
-0.05402011
1.011122
-1.177119
-26.14622
0.01539973
0.009224085
0.02141875
-42.42684
-47.35769
0.6506741
0.3776256
-0.0663654
-0.06810956
0.002066324
-0.4565151
0.2421591
-0.8621901
2.205755
0.5502266
-0.01425897
11.9177
-1.295737
0.06365059
3.010925
0.009533464
-0.561535
-23.53908
-0.01648445
-0.250012
-34.45889
0.01215738
13.83148
0.01890166
0.002280155
-0.05032646
0.2081084
0.259801
0.002905056
-5.000974
-0.0552985
-1.047448
0.02537899
0.004271574
0.7332317
-0.1806475
-3.704143
-0.1078737
0.01639608
0.00262328
-0.00598211
-0.5038582
-0.9379677
-74.87737
0.5440313
-11.82877
-0.01776474
0.0009294224
0.02179521
3.984298
-0.06081027
-17.41023
-0.09170821
-43.4964
-1.443522
0.01595774
0.3449839
-0.03423573
27.67223
-0.1494819
2.531096
-1.510835
-9.309038
-1.430344
-0.1189441
7.085084
-0.01704634
-12.2153
0.1128144
-40.4154
0.01616949
-0.2401475
1.805261
0.1160549
-0.07828011
-0.09434458
0.08591771
-0.06318892
-0.021368
15.86269
-0.01283791
0.3818729
-0.01618403
-21.91751
-2.921233
-0.001295952
-17.14824
-0.4254489
-0.01861042
3.467679
-0.006902884
3.039074
-0.4188434
-0.09034422
0.001462519
-4.228314
1.582663
-0.102846
-0.8174015
0.2449055
0.1096241
0.01604452
-20.89008
1.59588
12.04595
-1.461409
0.1830844
-0.06757992
0.260751
0.0006462411
0.006653302
-0.1278479
-0.3908625
-0.07550016
-4.760421
0.003953569
-0.009798163
-1.008741
-0.1978579
1.950232
-0.03096146
-0.0148476
-24.07723
-3.61917
-21.56598
0.02992988
3.493203
4.161105
2.928765
0.01995661
-0.01629746
-0.005868992
4.306361
-0.07544439
0.50591
0.4757683
-57.84598
1.645941
3.509457
-0.00335244
0.0002769485
8.015454
-0.08349407
8.489423
0.004444687
-3.285854
3.610501
0.02983819
-0.7638284
5.815839
15.44933
-8.739393
-0.01425857
0.1359997
0.01054488
0.05550139
-0.002657054
-0.012224
-0.02925608
5.059529
29.45438
0.01388574
-0.1290689
3.031284
0.9832512
-58.06134
-0.03185534
2.018175
0.0006758167
1.639083
-0.06058125
-0.0054885
0.6391457
-0.01573877
5.183591
0.0552749
1.102052
-20.2783
0.3611739
-0.02503485
-75.45187
-3.276869
-1.29034
-20.76767
0.1171592
-0.0001239822
-0.04976244
-0.007887882
-0.4343835
-62.61048
-0.005780757
-0.03936512
-0.1035306
1.382718
-0.007540118
-0.001088434
0.494393
-19.91903
-10.38323
-0.06720732
-23.66623
0.07643563
4.545368
-0.004678222
-12.29764
-0.02234604
8.032106
-6.449402
-0.6377528
-1.923089
4.156191
2.980948
4.175639
-0.006253623
-0.5422081
-0.005762434
0.01502875
17.61783
2.089609
-0.04433137
-0.004321331
-2.331612
2.080108
6.001477
-12.70454
0.6518177
-36.02997
-6.985696
-7.730253
-0.8434949
-0.4367463
0.02322022
-0.09767413
0.01697598
-0.0003135645
0.5865838
-0.009582219
0.9412844
0.01497907
-53.79765
-0.001669267
25.38839
3.344956
-36.1911
-0.002848302
2.438695
6.648921
-2.458532
-24.28183
-0.0395633
0.05407657
-18.76337
-1.295584
-0.877262
0.4085089
0.1905187
-0.04000816
0.1166548
0.233445
0.9111353
1.269531
-4.680849
-0.03703213
-0.0390854
-78.6916
0.002132947
-0.07515717
2.205568
10.21275
0.001232139
0.1666028
7.848212
14.28874
12.32639
1.40951
0.1181135
-0.01514837
-0.01238759
-0.04110243
-2.122966
2.06253
-0.04001773
-25.0256
-0.03467635
-35.12028
0.0252717
0.006162963
0.03008396
-35.53732
1.442168
-0.7763953
-1.365446
0.06342571
-7.833675
-3.3959
-5.414291
3.865176
9.770684
0.7051793
-0.1936934
-23.74774
0.1676337
0.9415369
0.6559627
0.2494612
-0.111076
-4.8746
-0.4348654
0.07522715
-37.88865
-0.006845362
-0.04304621
0.2403408
0.03568555
-0.4890349
-0.05774178
-0.007293239
-1.071981
-0.09387151
-23.87184
-0.02248461
-0.1007899
-0.6037603
-0.674963
-0.2597558
-0.07810501
0.006813971
1.667336
0.02236482
2.828357
-7.29309
-0.6932137
0.00868714
-0.01342561
-0.04335635
-0.2816181
3.760309
0.01250719
-48.42543
1.699252
2.896332
6.950703
-0.01928621
-15.22591
-6.480729
0.1473684
0.02452736
-62.80326
0.5447156
-11.33482
-18.80513
-4.433451
-3.653946
-2.187171
0.8415204
13.56811
1.579703
0.3024848
-5.787519
0.09021902
-0.5102096
-0.1323581
-7.716727
22.42153
-6.577784
0.04323079
1.201848
-0.6171469
-0.02488658
-0.02122956
-4.2957
0.03805972
0.2403896
-0.7882219
-0.004335273
-2.426419
5.877287
-0.2690451
0.0141859
-3.497915e-05
0.09181043
-0.3704269
-0.9696022
4.649385
30.95306
0.004705685
-0.01021732
-0.2614523
-0.07897176
-0.03266209
0.009716269
-32.45986
-0.219366
-62.51024
-8.584463
-0.8714201
-0.006498057
-0.003976178
-7.613577
0.8100757
-0.011331
-0.02428243
0.01075551
-9.543709
-58.14502
-0.1514466
-0.9664744
-1.605625
0.004734056
-1.007755
1.112702
0.9426332
-3.199907
14.30237
-0.5142917
-0.146887
-0.6085427
-0.5795624
1.662754
-1.586685
0.0051002
-1.205405
0.5127426
-0.06294754
8.322448
-28.76574
-9.359954e-05
0.00358538
-12.38703
-0.5418376
-0.127802
-0.06422645
-2.68636
-1.550462
-0.005233058
1.934035
0.635865
1.144756
2.956711
-0.9282849
0.0254676
31.67658
-0.135255
-2.403818
-0.01607019
-71.65751
0.03975336
-0.0784077
1.171832
-0.702209
33.62258
-0.7523263
-0.03609835
0.2964512
-0.1091908
0.0006580913
-0.500652
-0.03418149
-0.08626545
-22.38717
-13.80869
-0.06505412
-3.016478
-26.22894
0.01103278
0.04317666
-0.03441122
-10.87423
4.467862
30.90693
-0.00558269
-0.5797146
-0.4906753
0.00405662
0.01414182
9.000778
-1.495932
-0.1561056
-0.01383209
-0.8293901
-0.6250191
-0.02345741
-0.02793799
-8.019627
0.352587
-28.83304
2.213043
5.413412
-0.01186943
0.1641933
0.01468483
2.142042
-11.56847
-0.003629707
-0.00400743
10.65937
-16.89057
4.634435
0.004505196
-0.1351897
-11.75198
26.50907
0.2364544
-0.01923774
-4.344869
-37.53142
0.01116204
-0.003617236
2.051889
0.6567693
0.6545426
-29.32777
-4.438967
1.603053
0.04099204
-0.01506154
0.00168661
-21.26409
-21.181
-52.87489
2.06769
-40.30141
0.4493163
-0.9355756
-18.72263
-0.1164447
-1.068098
-28.40493
0.00557521
-0.04296799
0.06596081
0.6305285
-0.002845146
-22.29741
-35.47645
0.765898
15.55176
0.3308708
-0.00669194
-19.82726
19.15449
-14.12652
0.1570002
-0.3606953
0.3580715
-0.0173049
0.003415885
0.1614499
0.1333464
-0.05827752
-1.393742
-56.94959
-71.46025
0.03249553
0.0884088
1.897148
-0.01681346
-0.6721373
2.105019
-0.07391014
-0.01989907
-0.5092012
-0.4825436
0.05574543
0.5967495
-0.09918619
-12.45948
0.8566988
-0.1549119
-37.29597
1.193386
-0.1274085
-2.741321
-26.41458
2.423978
-2.527737
0.4866194
-13.65879
-38.97694
34.02622
47.61982
1.732929
-1.062897
0.3280303
5.178722
1.021853
1.19942e-05
11.57499
-31.39426
1.456425
-0.05862992
-0.9078744
1.557846
-0.08798126
1.821265
-0.4475209
-24.20359
-55.21575
0.1634881
0.6335349
-0.01178567
1.761159
1.066441
-13.20887
-0.03539167
-0.07910946
-0.1916905
-1.120665
-0.008871029
-0.0165071
-37.77926
-22.88411
1.169196
0.07369595
-0.02285153
1.537229
9.774683e-06
1.338886
-0.01529535
32.49476
0.4809758
-14.48925
-52.81501
0.04412641
-0.5375126
-57.61264
-46.97785
-0.6054242
0.2044731
0.07671886
-0.04482308
-1.267157
-6.995325
-0.008294441
-0.07295256
-0.04551303
0.03204787
-0.0110196
-1.608254
0.3754123
0.002793598
-0.7957252
0.01119792
0.04784046
-0.993245
-1.6128
-0.03469032
-0.6037253
0.6995738
-1.096785
-0.01397708
3.065557
-0.09967857
0.3768225
2.536419
0.009857283
0.06157526
-27.51588
-21.76876
-0.01445919
-0.06988376
0.00973381
-0.02483469
-27.42965
-10.56251
-16.04922
-30.26604
23.8412
-0.02637599
2.876857
0.05351798
-19.7902
-0.121804
2.947423
28.58943
0.0517937
0.7447319
0.675428
0.6650245
4.803256
-0.8358011
0.00125394
-6.862213
-0.006084092
-31.35758
1.729048
4.866257
36.27746
-11.16952
-6.27633
-0.111767
1.166382
0.0950086
7.712022
0.08439899
7.483224
-1.681921
0.002664659
-8.592127
0.001942268
-2.365068
-0.1877936
-20.85051
-0.5107141
-60.59682
7.688337
0.1280621
14.24842
-0.04101117
30.59837
0.001670142
0.2097376
-0.005579111
-1.854366
15.32742
0.1797217
-89.95242
0.01030232
0.002333964
-0.2301683
-0.2005582
0.7252852
-10.36793
1.561829
-0.006021877
-33.12366
0.08163253
19.15959
-43.74178
1.85977
23.74289
-16.24131
-4.300757
-31.01148
38.98548
0.9969523
-0.0453104
-36.91372
0.001932313
-0.0175927
-2.288675
-0.1599652
-20.42292
-75.4498
0.3950774
0.5718539
0.534649
0.1880195
-0.06582202
0.01918791
0.5006119
5.298765
2.458001
-0.03426169
-0.02112789
-0.0500785
0.01329566
0.3193948
-0.02038546
-0.7345574
-0.5863182
-47.6578
0.01536515
-0.008175354
0.02528013
-0.08530211
-33.47159
1.315935
-0.008163244
0.7555732
-0.02888496
0.02406873
0.07062664
-0.06726297
-0.002614055
-39.14195
26.48301
-1.902835
0.01766837
2.590935
-1.655643
-0.2065021
-0.3654773
-0.01362402
-0.6201841
0.009871614
6.533673
-0.369239
-14.53998
0.267116
1.746739
1.416844
0.209274
-1.254063
-0.5360274
0.72899
1.159526
-36.67198
0.9834818
-0.005367172
-0.002587695
-1.233388
0.002242865
-0.3570742
-22.91914
0.2802196
-0.1157145
-0.002355331
-8.808101
-0.02071992
0.008879762
2.336245
-58.3762
0.03279818
-0.0207397
0.02662029
-71.26399
-0.003315889
-32.87222
0.006065868
-0.0403908
-0.3559817
-0.5545183
1.823876
-30.21961
-45.12256
-0.02614071
-0.01314281
7.304531
-0.002622391
2.057496
1.645465
2.102287
-1.121372
-0.01663124
-0.2065434
-65.99742
0.03177953
0.002667136
-0.4403422
0.07081992
-1.409623
0.4647113
-0.06063907
-0.1940931
-10.87191
-0.6943989
-0.05729724
10.0092
0.1526693
-11.72406
-0.07532222
-0.02711402
-1.65052
-25.38943
-0.9300489
-1.507029
0.04637259
-16.87136
-16.16995
-25.63537
-0.02450075
19.0757
0.3178549
-6.488463
-2.980939
-0.7609875
16.41401
0.2184352
-23.54361
-71.73086
-0.01500551
-0.0007472074
-1.470385
-0.00394715
0.006367281
-0.01226272
0.06986544
0.0007072542
-0.02373775
-14.15461
-1.027856
-0.02842077
0.1748604
0.4147558
-1.040577
-0.2357714
-0.01933158
-0.04187031
0.608872
-14.38183
-1.149985
1.446756
-0.5657043
0.01178744
-26.1781
0.005372486
-3.781488
0.0058401
0.0373056
0.002109183
-19.00695
-5.081121
1.139774
1.660477
0.01993385
11.09914
-53.65561
-17.63343
-0.9492056
-0.3478958
18.16999
-1.77592
-0.06959056
-0.2321081
-2.481404
0.0165937
-47.02001
-29.06264
-18.05043
12.46167
9.0902
0.007472104
-44.51272
-44.66777
-68.52511
1.724282
-5.215207
-1.742715
0.1328466
-0.004317977
-0.02184906
-0.06299533
-0.01532741
-0.1365366
0.02754328
-0.08659178
-0.02276796
-25.54617
-0.04459297
-0.2260048
-0.3248489
9.086366
19.95965
0.001823662
16.05299
-33.9822
-11.24288
8.625133
-1.575229
-7.334512
-12.11283
-61.40197
0.111802
-26.8465
0.6108488
-53.66852
-22.55509
-0.03118012
0.06199886
-5.511565
-0.01259413
14.43974
-0.1723124
-0.02267304
1.666476
-0.00984124
0.003306132
-0.02548916
-0.1714531
-0.5750672
0.08690017
-36.12396
0.007535437
-0.2072933
0.03422923
-0.02252338
-0.03815298
-15.0047
-0.001613448
-44.10165
-1.147254
0.7231323
23.94132
-0.01348036
0.8873392
-24.75284
-1.810035
-51.4439
0.0640039
0.003058248
-0.03401923
-0.07667156
0.166468
-0.007007898
0.1113243
1.566709
0.05225331
-0.07775486
0.001707539
20.55187
2.16721
-17.97305
5.799281
0.2409039
-0.01295943
-76.89779
0.001111618
-0.1667173
2.4995
1.618227
0.04203604
-52.85381
-37.69467
-38.87762
0.006452576
0.009773233
-59.51533
0.5710902
-17.26681
-0.3446896
1.034392
0.8395953
-34.41668
0.06126964
-68.46746
0.2379448
-3.317415
-0.07261277
0.2062454
9.747161
-0.3772788
-0.9874888
0.04188343
-0.02580527
-1.146335
16.4601
-1.299823
7.902954
-0.1241995
0.04777008
-0.05538159
0.3062359
0.3513695
-0.6657034
-0.01220178
-6.242286
0.3266017
-0.002483406
10.0884
0.004401405
0.009011137
-5.830667
-4.12013
-0.1528305
-0.138923
0.3488704
0.01133411
0.2201851
-69.10161
27.50581
-7.099868
-0.02455185
-0.008989524
-29.27035
-0.02422965
0.3278904
0.08062725
0.1739857
-0.8993599
0.3642986
-0.812863
-22.11478
-0.741668
21.30449
34.43513
1.281306
0.5349107
0.5816534
0.1494478
0.7565589
-0.02567814
33.50929
-41.93923
0.004100476
1.462254
0.001114809
0.2157031
-0.009396869
-0.001953201
0.6660064
0.5681991
0.09811324
5.053597
-0.138834
0.6422988
0.02930095
6.492675
-11.90836
-2.648654
0.04068752
-75.2487
29.1811
19.22051
0.1792679
-9.340413
-4.280059
0.01591685
1.224586
32.69754
0.1132864
0.008972313
0.2331725
-0.9497136
-0.001142633
3.112934
0.02359015
0.02332132
-0.02825529
-0.1202297
19.87181
0.01138973
0.1638038
0.05086422
-0.01291983
0.03880468
20.24104
2.658868
7.444678
-75.34779
-33.16839
-0.03972324
0.009639558
-22.92201
0.005456572
-35.57473
-1.87767
0.001326954
1.216389
-0.5315623
0.2822427
-12.9525
3.263191
0.114641
-6.999254
0.01259322
-0.09853316
-2.27516
-55.23095
-16.68856
-0.4340728
2.80931
0.002286781
0.03083868
0.3354272
0.01756234
-0.2352359
0.02576265
-61.0026
0.3066385
-2.16082
-1.930336
-95.94192
0.7520727
1.200234
-9.295885
3.256103
1.643383
-0.299575
36.56076
0.009640813
-0.1239039
-0.6038262
-0.4176367
5.133391
-25.2185
-39.04718
13.56522
1.062928
-0.05271387
-0.169454
-0.117623
0.01820849
0.5268273
-0.03372795
0.0652172
0.1804709
0.2419964
-0.00118239
-0.2327885
12.09522
8.236666
-0.008691084
0.01632207
-1.491177
-1.276712
0.01538943
0.6528186
7.576944
-44.41732
-17.39055
-0.1960445
0.04410468
-72.50754
42.8718