/*--------------------------------*- C++ -*----------------------------------*\
| =========                 |                                                 |
| \\      /  F ield         | OpenFOAM: The Open Source CFD Toolbox           |
|  \\    /   O peration     | Version:  2406                                  |
|   \\  /    A nd           | Website:  www.openfoam.com                      |
|    \\/     M anipulation  |                                                 |
\*---------------------------------------------------------------------------*/
FoamFile
{
    version     2.0;
    format      ascii;
    arch        "LSB;label=32;scalar=64";
    class       volVectorField;
    location    "0.24";
    object      U;
}
// * * * * * * * * * * * * * * * * * * * * * * * * * * * * * * * * * * * * * //

dimensions      [0 1 -1 0 0 0 0];

internalField   nonuniform List<vector> 
15536
(
(-0.0125909 0.4100825 -3.322422e-24)
(-0.03848599 0.643762 -5.063753e-19)
(-0.08425313 0.8590876 -1.003799e-18)
(-0.1463413 1.075631 -9.914163e-19)
(-0.224858 1.289504 -1.553337e-20)
(-0.3129607 1.466651 8.093888e-21)
(-0.3889503 1.600687 1.469664e-20)
(-0.3125519 1.266791 -1.465519e-20)
(0.1843526 -0.3542029 3.506393e-18)
(0.5372012 -1.459035 3.330885e-18)
(-0.1306504 0.02565935 0)
(-0.6145104 1.222082 0)
(0.7118799 -1.055938 -2.64132e-20)
(1.775563 -2.765246 6.907889e-18)
(1.633177 -2.497164 3.109539e-18)
(0.6069476 -1.019668 -5.395443e-18)
(-0.8248376 0.9313907 3.108688e-18)
(-2.016066 2.364089 4.017003e-20)
(-2.538869 2.765971 -9.161746e-20)
(-3.037011 3.080417 5.133628e-20)
(-3.490602 3.339406 0)
(-3.160332 2.916822 7.797867e-18)
(-1.553073 1.522939 0)
(2.410462 -1.486457 1.359951e-18)
(4.902355 -3.293813 -2.274388e-21)
(2.1528 -1.519515 -1.088443e-20)
(-1.306401 0.5780107 1.127941e-20)
(-2.728284 1.33905 -4.092601e-18)
(-3.942238 1.77014 -5.131061e-18)
(-6.256631 2.518844 0)
(-9.08328 3.373398 -5.975387e-20)
(-10.74936 3.871154 -8.718347e-18)
(-5.371652 2.061065 7.820823e-18)
(3.018305 -0.6570437 0)
(1.569981 -0.6725861 -5.518036e-18)
(-3.166233 0.1676084 -2.776705e-20)
(0.3859859 -0.008224891 3.363985e-18)
(6.791904 -0.1681433 -1.578933e-18)
(10.5114 0.09597365 1.584493e-21)
(12.54339 0.563152 -4.042582e-19)
(13.66822 1.142683 1.644809e-18)
(14.35979 1.79266 -2.600189e-20)
(14.78707 2.459831 2.580777e-20)
(15.02593 3.123671 0)
(15.11821 3.776481 -6.425211e-18)
(15.07698 4.404403 -6.355263e-18)
(14.89645 4.998243 0)
(14.64423 5.564975 -1.202546e-17)
(14.32654 6.101784 1.168607e-17)
(13.96889 6.61252 1.124725e-17)
(13.56003 7.082747 4.080254e-20)
(13.09422 7.508402 -1.015508e-17)
(12.57874 7.884268 0)
(12.02249 8.21207 0)
(11.43495 8.488183 8.145409e-18)
(10.81355 8.704822 7.450126e-18)
(10.17664 8.872995 4.929262e-20)
(9.530394 8.990804 5.839689e-18)
(8.861726 9.039655 1.020824e-17)
(8.18366 9.028068 4.30903e-18)
(7.504237 8.959106 3.457876e-18)
(6.836861 8.842071 -2.416051e-20)
(6.178399 8.667289 0)
(5.526474 8.428298 1.01241e-18)
(4.894312 8.141919 0)
(4.279309 7.793899 6.369284e-19)
(3.689573 7.391085 -2.817316e-20)
(3.135286 6.944328 -2.824963e-21)
(2.616026 6.451695 9.929539e-21)
(2.136212 5.917894 -3.589825e-18)
(1.701405 5.351505 -1.760807e-20)
(1.312239 4.750309 2.433327e-18)
(0.9702158 4.116444 2.691689e-18)
(0.6805184 3.465953 0)
(0.4425805 2.804569 0)
(0.2592341 2.129103 3.288344e-18)
(0.1273014 1.451099 -2.505749e-22)
(0.04943704 0.7959113 8.942152e-19)
(0.02518248 0.1385076 1.651836e-21)
(0.0531763 -0.6090829 -6.899395e-21)
(0.1282006 -1.387705 -1.708673e-18)
(0.2613076 -2.128938 0)
(0.449607 -2.834621 3.082522e-18)
(0.6898453 -3.511274 0)
(0.9805557 -4.15953 -2.609011e-18)
(1.319621 -4.778109 2.309816e-18)
(1.706446 -5.366429 1.706893e-20)
(2.137866 -5.923357 3.444393e-18)
(2.610928 -6.439802 9.411771e-21)
(3.121828 -6.914099 -2.076487e-18)
(3.668177 -7.348185 -1.321989e-18)
(4.247541 -7.736007 7.014281e-21)
(4.858235 -8.079771 2.778303e-19)
(5.492663 -8.37469 -1.100308e-18)
(6.144291 -8.617697 1.825721e-20)
(6.803244 -8.795215 6.539892e-21)
(7.474921 -8.921257 -3.566993e-18)
(8.155278 -8.995803 0)
(8.835889 -9.010771 1.030176e-17)
(9.519567 -8.976782 5.888194e-18)
(10.18675 -8.879564 1.050732e-19)
(10.83355 -8.721077 -7.540987e-18)
(11.45573 -8.503954 0)
(12.05223 -8.232229 0)
(12.6229 -7.91324 0)
(13.15846 -7.545062 0)
(13.64845 -7.128922 1.077354e-17)
(14.08957 -6.66845 1.138845e-17)
(14.4826 -6.168262 2.906029e-20)
(14.82265 -5.635844 -1.226818e-17)
(15.08926 -5.065963 -6.270799e-18)
(15.29243 -4.471373 -6.489308e-18)
(15.36966 -3.844611 5.07814e-20)
(15.29378 -3.188493 6.633991e-18)
(15.05471 -2.514926 3.418604e-18)
(14.62459 -1.836263 -2.641418e-20)
(13.90868 -1.173594 -6.436268e-21)
(12.73711 -0.5812655 4.200651e-19)
(10.61794 -0.104022 -8.045424e-19)
(6.754194 0.1650682 -1.909149e-20)
(0.2386916 0.005297024 1.348579e-20)
(-3.07545 -0.1425688 3.588016e-18)
(1.684017 0.7022088 2.465402e-20)
(3.28618 0.7172121 0)
(-5.607929 -2.153651 -8.203965e-18)
(-11.15591 -4.011695 -9.300055e-18)
(-9.308655 -3.45108 -1.393555e-21)
(-6.363165 -2.559315 7.747621e-18)
(-3.938421 -1.764269 -5.222588e-18)
(-2.681225 -1.309643 0)
(-1.19734 -0.5253878 0)
(1.9275 1.368155 -3.888211e-19)
(4.700191 3.184614 0)
(2.824765 1.814595 2.350603e-20)
(-1.090824 -1.135894 -4.841585e-18)
(-2.863345 -2.681621 -7.734175e-18)
(-3.387411 -3.240728 6.473036e-20)
(-2.865117 -2.8989 -1.596848e-17)
(-2.337846 -2.544139 -1.024315e-19)
(-1.775795 -2.031282 9.972835e-18)
(-0.3059571 -0.2457223 3.757124e-18)
(0.9893936 1.454315 3.74338e-18)
(1.585935 2.299015 3.956904e-18)
(0.7055849 0.9902046 0)
(-0.3689709 -0.6328367 -1.413603e-20)
(0.1336347 0.4103087 -3.731095e-18)
(0.2803757 0.6485895 0)
(-0.2675297 -0.8846059 4.313522e-18)
(-0.6057113 -1.934187 -3.457911e-20)
(-0.6301177 -2.163335 1.752037e-20)
(-0.5344992 -2.100677 2.290794e-18)
(-0.4055105 -1.868111 4.973481e-22)
(-0.2656492 -1.448499 0)
(-0.144438 -0.9482419 1.080955e-18)
(-0.0596289 -0.4810911 8.497229e-21)
(-0.01692853 -0.1152174 2.055247e-21)
(-0.003056775 0.1514117 -2.056122e-21)
(-0.04751158 0.5407245 -2.144498e-19)
(-0.08122405 0.8111818 4.206146e-19)
(-0.1432446 1.063041 0)
(-0.223365 1.315904 8.220515e-19)
(-0.3240671 1.562408 0)
(-0.4414208 1.802072 3.236693e-18)
(-0.5270297 1.932767 1.207735e-20)
(-0.5758278 2.167599 -1.182332e-20)
(-0.2347751 1.144789 -2.828204e-18)
(0.02569051 0.005099955 -2.777682e-18)
(-0.1360358 -0.06571199 0)
(-0.2638104 0.7149466 1.973043e-20)
(1.50755 -2.163006 2.259959e-21)
(2.057805 -3.256243 -2.797726e-18)
(1.504017 -2.532594 -5.129387e-18)
(0.3940891 -1.063077 2.144872e-18)
(-0.9549518 0.7396279 -2.42524e-18)
(-2.364834 2.573806 -2.331948e-20)
(-2.993711 3.141253 0)
(-3.659043 3.552591 0)
(-4.254667 3.919429 0)
(-4.125878 3.738287 6.245483e-18)
(-2.959439 2.896467 1.938023e-20)
(1.640501 -0.4736483 -1.875752e-20)
(5.796856 -4.008188 -1.792149e-21)
(2.695048 -2.273848 1.688618e-21)
(0.29072 -0.5631922 0)
(-0.4388303 0.03686308 0)
(-1.096281 0.2430274 8.784893e-18)
(-3.033966 0.7456193 6.994296e-20)
(-5.713441 1.607398 -6.65245e-20)
(-8.219025 2.80028 7.511239e-18)
(-7.321313 2.882896 5.973758e-18)
(0.5257155 0.3227674 -3.157278e-20)
(4.63094 -1.052903 -4.290565e-18)
(7.892182 -0.9231532 2.482931e-18)
(11.7773 -0.6737856 2.28513e-22)
(16.7058 -0.6516345 1.050501e-18)
(18.27372 -0.3850915 0)
(18.74566 0.09882751 3.005175e-19)
(18.89251 0.7220369 2.480486e-18)
(18.89526 1.414596 2.554643e-18)
(18.7942 2.111552 2.566448e-18)
(18.61223 2.811097 -7.95139e-20)
(18.37222 3.513946 5.166197e-18)
(18.08116 4.204802 -3.921654e-20)
(17.75309 4.880992 0)
(17.35952 5.52294 9.590263e-18)
(16.91001 6.134756 0)
(16.41942 6.713951 -6.76573e-20)
(15.88063 7.247654 6.785294e-20)
(15.29002 7.732758 8.111462e-18)
(14.6544 8.162642 -5.688063e-20)
(13.98074 8.537292 7.082797e-18)
(13.27645 8.853642 -6.554558e-18)
(12.54492 9.108481 0)
(11.79649 9.31051 3.89882e-20)
(11.03785 9.455049 -4.79215e-18)
(10.26442 9.529099 -8.13429e-18)
(9.480977 9.534461 0)
(8.699982 9.481577 -2.777018e-18)
(7.930479 9.37189 -1.371124e-20)
(7.173139 9.197919 1.423805e-18)
(6.428999 8.958894 3.414894e-21)
(5.704464 8.66119 -3.455777e-21)
(5.004473 8.301156 -5.169463e-19)
(4.332212 7.882911 1.158236e-18)
(3.698452 7.411954 0)
(3.104307 6.894124 0)
(2.554777 6.333458 -1.848526e-20)
(2.053982 5.732055 0)
(1.60488 5.092008 0)
(1.209166 4.417554 0)
(0.8714012 3.720836 -2.418354e-18)
(0.5901181 3.012519 1.94389e-20)
(0.3745851 2.286774 1.109583e-20)
(0.2150395 1.558193 -5.436271e-21)
(0.1179274 0.8490166 -7.347332e-19)
(0.08920169 0.1351215 2.982129e-21)
(0.1298137 -0.6648915 -7.324768e-19)
(0.217998 -1.495677 1.392385e-18)
(0.3765766 -2.288492 1.060857e-20)
(0.5988878 -3.043728 -2.499543e-18)
(0.8799683 -3.768941 -3.66245e-20)
(1.218963 -4.46477 2.161907e-18)
(1.612226 -5.12578 -1.921945e-18)
(2.060415 -5.752446 0)
(2.556368 -6.344845 -5.626088e-18)
(3.098737 -6.889041 -1.554991e-20)
(3.685093 -7.388232 1.684798e-18)
(4.309999 -7.84623 1.078818e-18)
(4.971188 -8.250189 0)
(5.667231 -8.60241 0)
(6.390578 -8.906953 0)
(7.132945 -9.148512 1.42862e-20)
(7.889957 -9.322496 -1.418895e-20)
(8.661295 -9.439287 2.797341e-18)
(9.441806 -9.49715 5.317845e-21)
(10.22763 -9.492257 -4.168424e-18)
(11.0134 -9.429123 -7.278238e-20)
(11.78878 -9.302868 1.077903e-17)
(12.54548 -9.11021 5.995164e-18)
(13.27883 -8.853505 -4.879468e-20)
(13.99136 -8.539038 7.003679e-18)
(14.67756 -8.173136 5.720996e-20)
(15.33064 -7.748666 -6.512148e-20)
(15.94241 -7.271586 6.48206e-20)
(16.50885 -6.744435 7.145478e-20)
(17.03016 -6.173552 9.389151e-18)
(17.50098 -5.564248 -7.400275e-20)
(17.91079 -4.918256 0)
(18.25066 -4.236888 0)
(18.55857 -3.538269 0)
(18.82079 -2.833317 0)
(19.01913 -2.125922 2.023978e-20)
(19.13822 -1.423015 -2.018408e-20)
(19.15572 -0.727088 1.251613e-18)
(19.02308 -0.0995412 4.824734e-21)
(18.54823 0.3833899 0)
(16.89213 0.6482582 -1.107209e-18)
(11.84289 0.6789475 2.287515e-18)
(7.934273 0.9425559 -2.528806e-18)
(4.553061 1.051013 3.386082e-20)
(0.7045628 -0.3009047 -4.117894e-18)
(-7.605556 -3.003813 2.805367e-20)
(-8.394366 -2.848314 0)
(-5.787018 -1.603173 1.122348e-17)
(-3.021638 -0.7187757 -1.312064e-17)
(-0.9686055 -0.1749925 -4.410727e-18)
(-0.3458337 0.01197479 -8.584822e-21)
(0.3767587 0.5923818 -3.327539e-20)
(2.595401 2.176426 9.695358e-21)
(5.394799 3.801955 0)
(2.293385 1.017683 1.03343e-18)
(-2.587463 -2.610066 3.668322e-18)
(-4.025691 -3.727142 -1.209571e-20)
(-4.25735 -3.920761 -6.926019e-18)
(-3.58518 -3.464031 1.283769e-17)
(-2.817603 -2.967644 5.346779e-18)
(-2.176671 -2.286471 1.214125e-21)
(-0.5261547 -0.1263705 -2.963608e-18)
(0.8580313 1.57079 -2.366331e-20)
(1.765886 2.626391 -3.247716e-18)
(1.379445 1.86085 2.175198e-20)
(-0.2239538 -0.5183311 -1.412302e-21)
(-0.2443359 -0.3759689 -1.980443e-20)
(-0.389946 -1.157228 0)
(-0.7520312 -2.262236 0)
(-0.8633292 -2.556903 -3.620224e-18)
(-0.7764502 -2.441755 0)
(-0.6698294 -2.353075 -3.771442e-18)
(-0.5101094 -2.017174 1.865942e-18)
(-0.349636 -1.539378 -1.408456e-20)
(-0.2078232 -0.9820839 1.417738e-20)
(-0.100611 -0.4661132 8.935926e-19)
(-0.0454381 -0.05589457 -4.482934e-19)
(-0.02970364 0.2459949 -2.118549e-19)
(-0.07508976 0.6255846 1.737413e-19)
(-0.1047487 0.8943432 -3.436351e-19)
(-0.1696279 1.144763 1.062272e-20)
(-0.2487446 1.394897 -6.87472e-19)
(-0.3481704 1.639715 0)
(-0.4533205 1.870392 -2.66709e-18)
(-0.5341578 2.009716 -1.995758e-20)
(-0.5608264 2.231201 1.241903e-18)
(-0.4785698 2.083658 2.288724e-18)
(-0.389865 1.284463 2.226595e-18)
(-0.3018285 0.3740895 2.019871e-18)
(0.2955218 -0.07614548 -1.491601e-20)
(1.873174 -2.421961 0)
(1.901333 -2.943001 0)
(1.316157 -2.460037 2.060978e-18)
(0.04472725 -0.9609699 1.756204e-18)
(-1.285571 0.7899302 1.981752e-18)
(-2.419663 2.400515 3.779644e-20)
(-3.37293 3.401647 0)
(-4.338466 4.162081 4.783286e-18)
(-4.9764 4.650957 5.555114e-18)
(-4.698347 4.453318 -5.039629e-18)
(-3.304228 3.61314 0)
(0.2345537 1.219493 8.608235e-19)
(5.228736 -3.478282 0)
(3.432665 -2.989459 -1.503449e-19)
(2.751734 -1.981781 0)
(2.803033 -1.58327 -2.771457e-18)
(2.274008 -1.411726 -6.917282e-18)
(0.471432 -0.9834857 0)
(-1.890926 -0.04373678 0)
(-3.297386 1.378529 3.127186e-20)
(-4.978496 2.594303 -5.016174e-18)
(2.058065 0.5110882 2.929213e-18)
(11.95889 -1.716899 6.156186e-18)
(15.6668 -1.561537 -1.739035e-18)
(17.6582 -0.9343105 1.650989e-18)
(18.58699 -0.5079406 -8.500723e-19)
(18.28634 -0.06833776 0)
(18.29989 0.5557568 0)
(18.33678 1.261321 -2.063873e-18)
(18.33432 1.991709 -2.141913e-18)
(18.25834 2.716724 -4.192739e-18)
(18.10883 3.431362 4.150082e-18)
(17.90139 4.134541 9.752809e-20)
(17.63484 4.807158 -6.465344e-20)
(17.29935 5.45588 0)
(16.90004 6.063838 0)
(16.4477 6.642657 7.508807e-18)
(15.95588 7.190186 -7.235475e-18)
(15.41953 7.6887 0)
(14.83372 8.138587 0)
(14.20627 8.532203 9.333189e-20)
(13.54214 8.872659 -5.904066e-18)
(12.8504 9.154306 0)
(12.13474 9.373642 -4.780669e-18)
(11.40304 9.542901 -4.298777e-18)
(10.66403 9.655719 -3.747056e-18)
(9.914021 9.697412 3.271055e-18)
(9.153894 9.673213 -3.888509e-20)
(8.397209 9.5941 2.229792e-18)
(7.65271 9.460753 0)
(6.922885 9.263951 -1.161448e-18)
(6.207853 9.003881 -5.231811e-21)
(5.511272 8.688679 8.371248e-21)
(4.844313 8.310337 -4.863582e-19)
(4.20166 7.878397 0)
(3.596691 7.396202 -1.506776e-18)
(3.029508 6.870041 -1.705351e-20)
(2.507354 6.302774 2.431668e-18)
(2.03103 5.697509 1.431797e-18)
(1.604847 5.055255 -1.627632e-18)
(1.22907 4.380343 -1.809805e-18)
(0.9077751 3.684265 1.967994e-18)
(0.6385506 2.978101 -2.115382e-18)
(0.4364302 2.253866 -1.088402e-18)
(0.281665 1.527753 2.301563e-18)
(0.1863622 0.8220468 1.202683e-18)
(0.1623396 0.1135313 2.441586e-21)
(0.2129231 -0.671849 6.061656e-19)
(0.2953562 -1.489652 -9.066518e-21)
(0.4455824 -2.271534 0)
(0.6558465 -3.018867 -1.567521e-20)
(0.9202895 -3.738784 -1.349538e-20)
(1.240195 -4.430917 -1.711101e-18)
(1.610469 -5.090347 3.1572e-18)
(2.036921 -5.716355 -1.388431e-18)
(2.506265 -6.311743 2.282073e-18)
(3.019859 -6.861318 1.632397e-20)
(3.579307 -7.367239 0)
(4.174638 -7.835894 9.279816e-19)
(4.805713 -8.252666 2.212997e-21)
(5.47335 -8.619114 9.567784e-20)
(6.16658 -8.942413 0)
(6.87899 -9.204818 1.177732e-18)
(7.609462 -9.400128 0)
(8.354809 -9.54136 -4.838769e-20)
(9.109191 -9.626744 2.782292e-18)
(9.872695 -9.649394 0)
(10.63554 -9.617998 -3.896046e-18)
(11.39003 -9.525515 -4.419163e-18)
(12.12799 -9.368019 -4.913614e-18)
(12.84448 -9.147234 0)
(13.5442 -8.867853 -1.169607e-17)
(14.21948 -8.538643 9.388727e-20)
(14.86418 -8.150059 0)
(15.47014 -7.709823 0)
(16.03344 -7.218846 0)
(16.55501 -6.682413 7.600526e-18)
(17.02772 -6.109189 -7.88496e-18)
(17.44164 -5.497619 0)
(17.79274 -4.849698 0)
(18.07807 -4.174207 4.173061e-18)
(18.3035 -3.47334 3.332786e-20)
(18.46317 -2.752096 0)
(18.54922 -2.017691 0)
(18.56577 -1.282771 -2.088063e-18)
(18.54269 -0.5671992 2.499249e-19)
(18.55875 0.0616762 0)
(18.87861 0.5058486 8.536989e-19)
(17.90823 0.9493282 2.22246e-20)
(15.8569 1.582644 2.138451e-20)
(11.9753 1.728814 -2.747681e-20)
(2.018575 -0.5428576 3.010569e-18)
(-5.171606 -2.704835 5.16505e-18)
(-3.221822 -1.350829 1.044227e-19)
(-1.759716 0.1333561 5.909985e-20)
(0.6582188 1.088366 5.380787e-18)
(2.527218 1.538863 3.486748e-18)
(3.034496 1.695237 0)
(2.9266 2.047457 1.828286e-18)
(3.453305 2.918807 0)
(4.737229 3.263086 -3.772114e-21)
(0.841997 -0.6727119 -7.993351e-19)
(-3.096016 -3.483908 6.042668e-20)
(-4.592827 -4.462139 -6.218546e-20)
(-4.958833 -4.617967 5.64832e-18)
(-4.278008 -4.074951 -5.151741e-18)
(-3.254203 -3.285803 -4.312179e-18)
(-2.214307 -2.026845 -3.260508e-18)
(-0.8826213 -0.1549551 -2.370933e-18)
(0.5522142 1.463146 0)
(1.567513 2.334069 -7.173974e-21)
(1.668213 1.99646 0)
(-0.0341334 -0.4634082 -2.186841e-18)
(-0.5877428 -1.284883 2.510491e-18)
(-0.7476149 -2.183074 0)
(-0.8137127 -2.533854 0)
(-0.7873872 -2.436039 6.004439e-18)
(-0.7473472 -2.453417 -1.549574e-18)
(-0.6548414 -2.320197 3.111251e-18)
(-0.5316944 -1.992537 -1.184611e-20)
(-0.3931303 -1.508405 1.188083e-20)
(-0.2593869 -0.9433231 0)
(-0.140393 -0.4118632 -7.297947e-19)
(-0.07466498 0.0112079 7.211752e-19)
(-0.05440875 0.3232392 1.771392e-19)
(-0.1136055 0.7089403 -2.855713e-19)
(-0.1430362 0.9968503 -8.809087e-21)
(-0.215818 1.255035 8.752254e-21)
(-0.2991015 1.500053 -1.736231e-20)
(-0.4025584 1.733136 1.734502e-20)
(-0.5066409 1.944572 1.097163e-18)
(-0.6007337 2.117063 -1.644093e-20)
(-0.5815984 2.207752 -1.027734e-18)
(-0.5534197 2.339638 3.02886e-20)
(-0.5299757 1.943136 -1.765225e-18)
(-0.3495303 0.8244538 -3.274696e-20)
(0.7458953 -0.538805 0)
(2.023308 -2.309998 0)
(1.767356 -2.725247 -1.950523e-18)
(1.059601 -2.335027 -1.726594e-18)
(-0.3525599 -0.8569826 -2.850741e-18)
(-1.624821 0.8372739 -1.607602e-18)
(-2.522113 2.23887 0)
(-3.534658 3.273002 0)
(-4.607932 4.183498 -7.777062e-18)
(-5.253212 4.840105 -9.125198e-18)
(-4.932431 4.831427 5.343167e-20)
(-3.356817 4.0858 -7.656851e-20)
(-0.6211072 2.664153 -1.410378e-18)
(4.410376 -2.499515 4.721993e-19)
(4.427673 -3.633928 1.350906e-19)
(5.163974 -3.254737 1.355949e-18)
(5.746726 -3.049285 2.096281e-18)
(5.451764 -3.019211 2.715059e-18)
(4.080549 -2.807657 0)
(2.276494 -1.928715 -1.401702e-19)
(0.6884409 -0.208692 -1.213657e-17)
(-1.141026 1.843812 9.018654e-20)
(7.252531 0.2536994 1.023e-19)
(16.66348 -1.896125 -2.217752e-18)
(17.97765 -1.808749 -1.30347e-18)
(18.30112 -1.161893 -3.960213e-20)
(18.04864 -0.7144807 -7.046969e-19)
(18.04572 -0.3904372 -3.780896e-19)
(18.28998 0.1459963 -3.095173e-21)
(18.43443 0.7776937 0)
(18.49008 1.46485 -2.674023e-20)
(18.4471 2.168044 1.761847e-18)
(18.31837 2.865144 -6.861003e-18)
(18.12106 3.571522 5.258284e-20)
(17.85899 4.25492 -3.360567e-18)
(17.52917 4.915712 -1.006262e-19)
(17.13565 5.537158 -6.30843e-18)
(16.68671 6.133729 -2.234456e-21)
(16.19723 6.70426 5.968263e-18)
(15.66408 7.222918 -5.602624e-18)
(15.0803 7.695749 0)
(14.45401 8.111831 7.546922e-20)
(13.7888 8.477547 -7.595015e-20)
(13.09434 8.78515 0)
(12.37383 9.031371 3.938545e-18)
(11.63607 9.227312 7.228762e-20)
(10.88972 9.36667 3.132443e-18)
(10.1324 9.433557 -2.630311e-18)
(9.36633 9.431066 -2.192817e-18)
(8.599906 9.375219 -1.80275e-18)
(7.846477 9.263507 -1.32072e-18)
(7.108155 9.086561 1.052786e-20)
(6.383273 8.845634 -1.063253e-20)
(5.676242 8.549162 0)
(4.999116 8.187987 3.971558e-19)
(4.345789 7.772228 -1.619739e-20)
(3.731038 7.304493 1.254116e-18)
(3.154461 6.791482 1.616705e-18)
(2.62543 6.235415 -1.980256e-18)
(2.142024 5.640506 -1.17515e-18)
(1.709396 5.007511 -4.299249e-21)
(1.327379 4.340873 1.484649e-18)
(1.002514 3.651118 2.595757e-20)
(0.7280752 2.950638 1.695188e-18)
(0.5252892 2.229102 1.435835e-20)
(0.3675886 1.503757 -9.619187e-19)
(0.2694005 0.7985261 -4.902683e-19)
(0.2492174 0.09087189 -6.07866e-23)
(0.3115041 -0.6788985 4.807249e-19)
(0.3910039 -1.483866 7.424808e-21)
(0.5384443 -2.255943 -8.971495e-19)
(0.7493864 -2.994731 1.696078e-18)
(1.015412 -3.705487 0)
(1.337897 -4.387531 -2.986475e-21)
(1.711088 -5.036283 -1.298716e-18)
(2.143193 -5.65108 1.170459e-18)
(2.616717 -6.235798 -1.962775e-18)
(3.139044 -6.771826 2.151884e-20)
(3.708945 -7.263554 -2.132102e-20)
(4.310243 -7.719731 -7.627132e-19)
(4.950707 -8.120687 0)
(5.631983 -8.468586 -8.492395e-20)
(6.333125 -8.776114 1.577869e-20)
(7.054381 -9.020093 -5.479491e-20)
(7.795222 -9.194995 -1.333543e-18)
(8.54925 -9.316099 -1.866219e-18)
(9.311564 -9.38016 -1.856444e-20)
(10.08259 -9.380144 2.662253e-18)
(10.85381 -9.323927 -4.522558e-20)
(11.61423 -9.207171 -3.515858e-18)
(12.35759 -9.023557 0)
(13.08048 -8.774048 4.303537e-18)
(13.78385 -8.468248 4.748691e-18)
(14.46019 -8.114036 4.933184e-18)
(15.10474 -7.700534 -5.26065e-18)
(15.7087 -7.237585 5.645289e-18)
(16.26946 -6.723842 0)
(16.78771 -6.164985 -1.243694e-17)
(17.25622 -5.573896 1.301034e-17)
(17.66537 -4.944567 -1.54324e-19)
(18.01032 -4.283155 -3.353947e-18)
(18.29342 -3.594229 -3.419656e-18)
(18.50945 -2.89057 0)
(18.6487 -2.183559 1.766007e-18)
(18.70362 -1.472126 -1.752824e-18)
(18.65963 -0.7838719 8.649323e-19)
(18.5237 -0.1439569 -2.138262e-19)
(18.2906 0.3926408 -4.003839e-19)
(18.32414 0.7175897 1.152009e-20)
(18.58595 1.182594 -1.398221e-18)
(18.26737 1.832413 2.26462e-20)
(16.82359 1.910376 0)
(7.092798 -0.3140515 0)
(-1.286881 -1.929258 -1.494394e-19)
(0.906922 0.340479 1.844241e-19)
(2.56163 2.094213 0)
(4.38791 2.965312 0)
(5.816647 3.198581 0)
(6.100712 3.21451 2.208896e-18)
(5.474675 3.376366 -2.897553e-18)
(4.602312 3.600153 1.959795e-19)
(3.937583 2.356164 4.185534e-19)
(-0.1559234 -2.182944 -2.606728e-20)
(-3.243252 -4.060822 2.433083e-18)
(-4.788195 -4.828133 4.143716e-18)
(-5.14014 -4.69652 6.974778e-20)
(-4.492508 -4.036569 -9.009196e-21)
(-3.42751 -3.168386 -6.093003e-20)
(-2.378457 -1.867309 -3.582187e-20)
(-1.278916 -0.228076 1.993876e-18)
(0.1198884 1.220849 0)
(1.312208 2.036615 2.258809e-18)
(1.79498 1.829057 -1.991416e-18)
(0.1455633 -0.5772537 1.762257e-18)
(-0.6689253 -1.763692 0)
(-0.8083538 -2.422728 0)
(-0.7976994 -2.450706 -3.73473e-20)
(-0.8150502 -2.437988 -2.487698e-18)
(-0.7864696 -2.468393 1.318297e-18)
(-0.6998346 -2.329575 -1.281028e-18)
(-0.5914555 -2.012619 0)
(-0.4662613 -1.530385 0)
(-0.3343866 -0.9621731 0)
(-0.1977569 -0.4103289 -5.906544e-19)
(-0.1170118 0.04766523 -3.058039e-19)
(-0.08936868 0.3872567 -2.91259e-19)
(-0.1619172 0.7276858 1.173001e-19)
(-0.1851802 1.03491 0)
(-0.2591937 1.298242 -4.592439e-19)
(-0.3385423 1.540912 0)
(-0.4404083 1.768133 -9.114707e-19)
(-0.5435136 1.984882 0)
(-0.6228085 2.177018 0)
(-0.6107282 2.284373 -8.406177e-19)
(-0.5620671 2.370762 -1.563347e-18)
(-0.5148087 2.205044 1.459333e-18)
(-0.2969467 1.208463 -1.336904e-18)
(1.064832 -0.6215349 1.221673e-18)
(2.063919 -2.023203 0)
(1.623267 -2.520805 3.261313e-18)
(0.7264735 -2.175942 1.414978e-18)
(-0.7925648 -0.7935156 1.201454e-18)
(-1.920781 0.7560655 -3.878437e-20)
(-2.737249 2.188404 -6.958893e-20)
(-3.728612 3.177421 -2.449655e-18)
(-4.763247 4.077678 6.362377e-18)
(-5.302885 4.820365 3.762673e-18)
(-4.841696 4.968994 8.976482e-20)
(-3.174537 4.347512 2.142013e-18)
(-0.6960659 3.596244 6.06653e-19)
(3.811114 -1.381642 -3.724851e-19)
(5.57496 -4.100437 0)
(7.370781 -4.284175 -4.460512e-20)
(8.404556 -4.301618 0)
(8.416239 -4.482943 2.083099e-18)
(7.685514 -4.611523 3.148863e-18)
(6.598063 -3.906902 5.904086e-18)
(4.938881 -1.720839 -2.174643e-19)
(5.28951 0.6957743 1.057309e-19)
(13.10566 -0.002027499 -3.294112e-18)
(18.13124 -1.646647 0)
(17.41018 -1.682978 -1.034151e-18)
(17.67716 -1.058145 -1.157075e-18)
(17.6236 -0.5221446 1.180502e-18)
(17.81353 -0.0624161 2.978934e-19)
(18.01546 0.5473365 0)
(18.13847 1.214097 6.777414e-19)
(18.18024 1.912378 0)
(18.13363 2.602881 0)
(18.00213 3.285563 2.866199e-18)
(17.80423 3.977103 -4.353223e-20)
(17.54547 4.634571 4.738611e-20)
(17.21862 5.266635 -2.643462e-18)
(16.83151 5.85441 5.297077e-18)
(16.38928 6.417977 -5.03779e-18)
(15.90941 6.957684 -4.842331e-18)
(15.39187 7.43601 2.233183e-19)
(14.82171 7.875727 -1.399134e-19)
(14.21284 8.256179 -1.225632e-19)
(13.56439 8.591789 -3.516061e-18)
(12.88897 8.871364 -3.563372e-18)
(12.18828 9.089852 -9.314661e-20)
(11.4682 9.26428 2.952061e-18)
(10.74438 9.381652 0)
(10.0111 9.426895 2.165881e-18)
(9.263279 9.409655 1.80512e-18)
(8.516071 9.341094 1.390918e-18)
(7.784233 9.21809 1.08668e-18)
(7.066438 9.03251 0)
(6.362185 8.783382 0)
(5.672339 8.483766 -2.717861e-20)
(5.015075 8.118742 0)
(4.375949 7.703511 0)
(3.776985 7.237087 1.09245e-18)
(3.216899 6.726116 -2.140158e-20)
(2.697602 6.175406 -1.348284e-20)
(2.221867 5.585957 -3.219637e-20)
(1.797375 4.958521 2.234668e-18)
(1.423965 4.297289 0)
(1.108297 3.612603 0)
(0.8299644 2.920933 1.434943e-18)
(0.6313774 2.203172 7.199967e-19)
(0.4716257 1.478739 7.759095e-19)
(0.3701355 0.7744867 -4.014448e-19)
(0.3539158 0.06588903 0)
(0.4316149 -0.6836407 -3.751341e-22)
(0.5083527 -1.475428 2.369485e-20)
(0.6441087 -2.238256 7.117889e-19)
(0.8478979 -2.966249 -1.390428e-18)
(1.108745 -3.665539 -3.92024e-20)
(1.42617 -4.337396 1.194347e-18)
(1.79392 -4.977142 3.51459e-20)
(2.220329 -5.584593 1.887083e-18)
(2.680185 -6.16545 -1.266756e-20)
(3.189046 -6.697619 -1.342359e-18)
(3.749953 -7.186516 3.556496e-20)
(4.336799 -7.643404 0)
(4.957008 -8.04705 3.357067e-19)
(5.624276 -8.397297 0)
(6.311462 -8.709594 0)
(7.010758 -8.963168 -7.614074e-19)
(7.732301 -9.147132 2.191407e-18)
(8.469607 -9.278324 5.113219e-20)
(9.211808 -9.356067 -1.022176e-19)
(9.963074 -9.371176 -2.186038e-18)
(10.71422 -9.334018 -2.48763e-18)
(11.45482 -9.238058 2.991838e-18)
(12.17704 -9.079367 -3.255215e-18)
(12.87851 -8.857736 -7.143768e-20)
(13.56496 -8.577755 0)
(14.22324 -8.255387 -4.269845e-18)
(14.85183 -7.873467 9.008435e-18)
(15.44087 -7.445466 -4.801084e-18)
(15.98772 -6.967553 0)
(16.49593 -6.443902 8.972204e-20)
(16.95447 -5.89222 -5.20966e-18)
(17.35636 -5.296839 -8.320353e-20)
(17.6979 -4.667368 1.345753e-19)
(17.97854 -4.00254 -8.71531e-20)
(18.19325 -3.321485 0)
(18.33421 -2.627604 -2.81417e-18)
(18.39192 -1.92963 1.364419e-18)
(18.36039 -1.230899 6.788879e-19)
(18.24532 -0.5524945 -1.067658e-20)
(18.05278 0.06131488 3.234097e-19)
(17.87885 0.5255119 5.991508e-19)
(17.93612 1.079351 0)
(17.69466 1.705348 1.126548e-18)
(18.42231 1.656861 -5.585392e-20)
(13.05414 -0.05552723 1.79356e-18)
(5.214433 -0.7212776 0)
(5.290241 1.910928 0)
(6.984487 4.118501 0)
(8.037249 4.79104 4.07507e-20)
(8.802374 4.673978 2.113265e-18)
(8.807488 4.483502 -1.809217e-18)
(7.785833 4.439939 1.219604e-18)
(5.908441 4.10603 -2.698284e-19)
(3.463359 1.373735 -3.268303e-19)
(-0.3921694 -3.201481 0)
(-3.100372 -4.364919 -2.00436e-18)
(-4.619197 -4.90742 -3.358495e-18)
(-5.056931 -4.555895 4.011791e-18)
(-4.592054 -3.902691 -1.126788e-19)
(-3.661417 -3.10924 -7.765921e-20)
(-2.693443 -1.832292 7.791149e-20)
(-1.681556 -0.2670886 0)
(-0.3745441 0.9320917 -1.66497e-18)
(0.9789347 1.682789 5.692763e-20)
(1.831675 1.495358 3.230152e-18)
(0.3136992 -0.8228173 -1.470841e-18)
(-0.6126042 -2.010991 1.020221e-19)
(-0.7576583 -2.42265 -1.842073e-18)
(-0.7829861 -2.437712 0)
(-0.8151199 -2.493988 -2.054284e-18)
(-0.7905771 -2.49697 1.086661e-18)
(-0.7403837 -2.362319 -6.555567e-20)
(-0.6600274 -2.051845 1.102064e-18)
(-0.555774 -1.584978 -4.759084e-20)
(-0.4290402 -1.02809 1.567042e-20)
(-0.2772637 -0.4688676 4.915759e-19)
(-0.1820184 0.0279206 -3.768985e-21)
(-0.1399594 0.3938962 3.75173e-21)
(-0.2189323 0.6569583 5.998483e-21)
(-0.2297683 0.9782605 1.847015e-19)
(-0.299083 1.244341 3.773714e-19)
(-0.37287 1.497154 -3.760638e-19)
(-0.4765237 1.739658 7.487979e-19)
(-0.5819529 1.984339 0)
(-0.6589319 2.203556 6.815433e-19)
(-0.6532341 2.374349 7.372324e-19)
(-0.5828641 2.428456 1.290921e-18)
(-0.4459551 2.331625 0)
(-0.1776236 1.582166 0)
(1.281923 -0.4017864 -9.906939e-19)
(2.009709 -1.610294 -3.833864e-20)
(1.370007 -2.195817 -1.322216e-18)
(0.2845343 -1.963928 -1.185549e-18)
(-1.272506 -0.7799618 -9.847135e-19)
(-2.197495 0.5725722 1.09086e-18)
(-2.958834 2.025889 -1.494157e-18)
(-3.893902 2.953406 1.921421e-18)
(-4.824681 3.822927 -2.536386e-18)
(-5.191644 4.63716 0)
(-4.515825 4.956168 0)
(-2.704699 4.42525 -1.832267e-18)
(-0.1664153 4.0761 0)
(3.683401 -0.317157 4.55709e-21)
(6.783407 -4.268816 -1.835269e-20)
(9.132904 -4.846114 -7.930682e-19)
(10.40685 -5.126464 -3.299701e-20)
(10.7894 -5.586882 2.955927e-20)
(10.93663 -6.107931 -2.505972e-18)
(11.29624 -5.760249 -1.186742e-19)
(11.45614 -3.501782 3.357633e-18)
(12.7621 -0.5122185 -5.946217e-20)
(17.06701 -0.2090864 1.422025e-18)
(17.67325 -1.384603 -4.650877e-20)
(16.88608 -1.607657 3.587165e-18)
(17.50847 -1.080481 2.871658e-20)
(17.60658 -0.6597657 -6.434178e-21)
(17.83652 -0.2650944 -5.043945e-19)
(18.03457 0.2735842 -4.108969e-21)
(18.1636 0.8834532 -5.586282e-19)
(18.20693 1.54956 -3.530802e-20)
(18.15982 2.228741 -1.090243e-18)
(18.02567 2.905908 2.238347e-18)
(17.8286 3.60112 -2.215789e-18)
(17.57731 4.255844 4.247125e-18)
(17.25386 4.910408 2.314038e-18)
(16.86862 5.513336 0)
(16.42533 6.09544 0)
(15.94641 6.656216 3.926596e-18)
(15.43005 7.153341 3.741073e-18)
(14.8604 7.610982 0)
(14.25477 8.00295 -9.853559e-20)
(13.60667 8.352823 3.188536e-18)
(12.92869 8.651842 2.839458e-18)
(12.2293 8.882113 2.495452e-18)
(11.5156 9.062009 -6.640732e-20)
(10.79409 9.191863 -1.90153e-18)
(10.05821 9.253471 4.853091e-20)
(9.315349 9.242259 -4.899366e-20)
(8.576908 9.17739 -1.173719e-18)
(7.84829 9.063967 8.433477e-19)
(7.126758 8.89401 0)
(6.430825 8.649303 0)
(5.743706 8.359942 6.914846e-20)
(5.095504 8.000939 -8.745513e-21)
(4.460969 7.59445 -8.369365e-21)
(3.877666 7.132404 -8.42567e-19)
(3.325902 6.628676 -2.2206e-18)
(2.799346 6.094774 1.277858e-18)
(2.32605 5.517187 -1.560042e-18)
(1.906188 4.899977 -8.744106e-19)
(1.541836 4.246549 -3.000385e-20)
(1.234052 3.565849 0)
(0.9484872 2.887057 -1.120121e-18)
(0.7619373 2.176471 -3.762317e-20)
(0.596893 1.45295 -6.452402e-19)
(0.4923709 0.7512756 3.440362e-19)
(0.4809527 0.04022376 1.209463e-24)
(0.5733232 -0.6852813 -3.419655e-19)
(0.638886 -1.46686 2.931579e-20)
(0.7695698 -2.216502 -6.202986e-19)
(0.9649766 -2.926834 1.139273e-18)
(1.219887 -3.61211 -1.100322e-18)
(1.533157 -4.27367 2.542407e-21)
(1.896965 -4.903401 9.124155e-19)
(2.327655 -5.50002 -1.502385e-18)
(2.778581 -6.075316 1.303699e-18)
(3.276487 -6.601999 1.004862e-18)
(3.838302 -7.081986 7.857131e-21)
(4.432486 -7.526607 8.280931e-21)
(5.044883 -7.923747 -2.62461e-19)
(5.695578 -8.275346 2.642568e-20)
(6.382971 -8.579056 1.345747e-20)
(7.080761 -8.822853 5.424694e-19)
(7.794169 -9.000526 -1.753201e-18)
(8.523318 -9.127997 1.154852e-18)
(9.270045 -9.188164 -5.227639e-20)
(10.01795 -9.193621 -1.754671e-18)
(10.76098 -9.152675 4.091621e-18)
(11.50113 -9.043923 7.62005e-20)
(12.2196 -8.875626 2.525164e-18)
(12.92038 -8.638907 -2.954305e-18)
(13.60794 -8.342991 9.173369e-20)
(14.26424 -8.008516 -3.370596e-18)
(14.89273 -7.60851 -3.456424e-18)
(15.48013 -7.165552 1.193674e-19)
(16.02739 -6.665662 -3.98528e-18)
(16.53543 -6.121379 4.123665e-18)
(16.99307 -5.5507 0)
(17.39272 -4.93761 0)
(17.72939 -4.288213 2.245568e-18)
(18.00415 -3.617734 2.243818e-18)
(18.21741 -2.934802 0)
(18.3583 -2.248308 1.204688e-18)
(18.41878 -1.557663 1.100113e-18)