/*--------------------------------*- C++ -*----------------------------------*\
| =========                 |                                                 |
| \\      /  F ield         | OpenFOAM: The Open Source CFD Toolbox           |
|  \\    /   O peration     | Version:  2406                                  |
|   \\  /    A nd           | Website:  www.openfoam.com                      |
|    \\/     M anipulation  |                                                 |
\*---------------------------------------------------------------------------*/
FoamFile
{
    version     2.0;
    format      ascii;
    arch        "LSB;label=32;scalar=64";
    class       volVectorField;
    location    "0.36";
    object      U;
}
// * * * * * * * * * * * * * * * * * * * * * * * * * * * * * * * * * * * * * //

dimensions      [0 1 -1 0 0 0 0];

internalField   nonuniform List<vector> 
4536
(
(0.008786866 -0.001535463 -1.033884e-23)
(0.01011535 0.0007282801 0)
(0.01097885 -0.000888326 -1.000385e-24)
(0.008049101 -0.001652282 -5.144078e-24)
(0.009353201 -4.074408e-05 -2.582873e-23)
(0.009070653 -0.0003281992 1.788169e-23)
(0.0100999 0.0006649666 -7.836542e-24)
(0.01018139 0.0006569837 -1.434954e-23)
(0.01145081 0.0002993669 7.923181e-26)
(0.009754472 0.0007408167 4.379543e-24)
(0.01086692 -0.0009459712 0)
(0.01125126 -0.0005652749 0)
(0.009991562 -0.001414121 -2.28857e-24)
(0.009805399 0.0004519164 0)
(0.01010131 0.0008451643 -1.611306e-23)
(0.0108241 0.0004880031 1.422332e-23)
(0.009902392 0.001228463 9.917725e-24)
(0.01085503 -0.001022764 0)
(0.009529496 -0.0002093302 -3.257075e-24)
(0.00850663 0.002593697 1.017725e-23)
(0.01014953 0.0004282513 7.856401e-24)
(0.01023156 0.0006610163 1.214232e-23)
(0.0113949 -0.0001248452 -7.249353e-26)
(0.01029742 0.00131671 -6.041408e-24)
(0.01151466 -8.774041e-05 0)
(0.008715912 0.0003516788 0)
(0.01036011 0.0006903 5.597282e-24)
(0.01011681 0.0005135604 -3.501506e-26)
(0.00792009 -0.001509398 0)
(0.01106827 -7.00251e-05 -6.73483e-24)
(0.01102651 0.001221719 0)
(0.0110015 -0.0006691188 -2.450794e-25)
(0.009729023 0.0009083973 3.75e-23)
(0.01098452 0.0003985027 5.383941e-24)
(0.01059996 0.0003593035 3.355082e-24)
(0.00976369 0.0006217372 0)
(0.01003273 0.0005341944 -5.572909e-24)
(0.00999741 0.0001652797 0)
(0.01011083 0.0005768425 6.450253e-24)
(0.01082613 0.0004876823 3.277353e-24)
(0.01063958 0.001254453 4.175157e-24)
(0.01123292 0.0005957914 2.305993e-26)
(0.01006062 0.0005486818 0)
(0.008805579 0.001282045 2.042449e-23)
(0.01043281 0.0004543836 5.33511e-24)
(0.008759479 -0.0014887 -6.199972e-24)
(0.01031184 0.001231759 0)
(0.011043 0.0008334874 0)
(0.01069628 -0.00114318 0)
(0.009675548 0.001057636 -1.745583e-23)
(0.009605382 0.002533115 0)
(0.009240993 0.0008279067 2.199612e-23)
(0.01040408 0.0007866845 9.105763e-24)
(0.01127842 -0.0006103016 -1.247258e-24)
(0.00858843 -8.955495e-05 0)
(0.009798546 0.0004137735 0)
(0.00930392 0.000614827 3.690428e-23)
(0.01088293 0.001060187 0)
(0.00939471 -0.0006984607 0)
(0.01068013 -0.001098889 1.225944e-24)
(0.008956983 0.002213838 -3.357489e-24)
(0.0106907 0.001349153 5.097025e-24)
(0.01084509 -0.001038846 0)
(0.009964881 0.001317194 2.392999e-23)
(0.01060322 0.0006652416 1.900825e-23)
(0.01132159 0.0002034421 -4.337249e-24)
(0.01012116 0.0007862064 -6.299533e-24)
(0.01129489 0.0004544587 4.449517e-24)
(0.01009808 7.700382e-05 -4.107571e-24)
(0.0113973 0.0001848601 -1.676212e-25)
(0.01071488 0.001040656 0)
(0.009678826 0.0008040406 3.095394e-23)
(0.01143739 -0.000129661 0)
(0.00978909 -0.001432523 0)
(0.01001409 0.0001302671 6.986449e-24)
(0.01145284 -0.0002926299 0)
(0.01143069 0.0009244979 0)
(0.01006127 0.001024468 0)
(0.009330827 -0.001451184 0)
(0.01104383 -0.0004021756 -8.259089e-25)
(0.01082771 0.001175806 0)
(0.007590724 -6.27491e-05 0)
(0.005780741 0.002106449 3.685106e-23)
(0.01014218 -0.001332786 4.697365e-24)
(0.009447063 0.001247338 0)
(0.01067651 0.001124572 -1.311196e-23)
(0.01054411 0.0008110069 0)
(0.01042567 0.0005119921 -1.500276e-23)
(0.01078484 0.0009110072 0)
(0.008805069 0.0026515 1.169503e-23)
(0.01009045 0.0007917823 7.415517e-24)
(0.009494404 0.0003150154 -1.967568e-23)
(0.009618429 0.0006103738 0)
(0.01115634 0.001277063 1.773063e-24)
(0.0103142 0.0009681634 1.148547e-23)
(0.009970375 0.0004163291 -8.883728e-24)
(0.01154217 3.560188e-05 -1.258042e-24)
(0.01012444 0.0008781086 1.983699e-23)
(0.00892185 -0.001422914 -8.697789e-24)
(0.01098862 -4.339196e-05 1.575999e-24)
(0.007823415 -0.001652355 0)
(0.01117737 -0.0003474014 8.006457e-25)
(0.0109273 0.0004385007 0)
(0.00995827 0.0002353146 1.720485e-24)
(0.01008396 -0.001333375 -9.475779e-24)
(0.0109199 -0.0009918239 0)
(0.01084922 0.00080294 -7.369253e-24)
(0.01047419 -0.001211566 0)
(0.01064366 0.001598542 0)
(0.01059691 0.002006734 0)
(0.006555104 0.001442035 -3.319826e-23)
(0.009929261 0.001195171 -6.856508e-24)
(0.01024963 0.0005943113 1.553515e-23)
(0.009569889 0.0007242087 0)
(0.01003402 0.0006754539 2.540883e-24)
(0.01142931 -0.000181289 3.722358e-25)
(0.009084804 -0.001579854 4.698806e-24)
(0.01035807 0.0006300682 9.538869e-24)
(0.009909959 0.0006126621 0)
(0.0111434 0.0003611792 7.920466e-26)
(0.01138096 -2.301517e-05 4.697663e-25)
(0.01093896 0.0002605705 -6.69998e-24)
(0.01120522 -0.0004620772 1.54317e-24)
(0.01047042 0.0006665116 0)
(0.01066333 0.001777519 7.59155e-25)
(0.007818966 0.002684729 -1.84159e-23)
(0.009893351 0.0003839494 -1.234098e-23)
(0.01064943 0.0005594376 -7.931696e-24)
(0.01142262 0.001007861 4.110184e-24)
(0.009694387 0.0004612039 0)
(0.009020885 -0.001564297 0)
(0.01137044 -0.0004700468 -2.194703e-25)
(0.008945384 0.0007328741 0)
(0.01028323 0.0005642725 1.550877e-23)
(0.008461074 0.0007519312 6.742803e-25)
(0.0101817 0.0005029517 9.861481e-25)
(0.009752924 -0.001470354 0)
(0.01153577 0.0003495678 1.038678e-24)
(0.01011108 0.000501582 0)
(0.01092906 0.0005133425 -4.157698e-24)
(0.009974625 0.0002231702 0)
(0.01102092 -0.0002458697 0)
(0.01113675 0.0005267072 0)
(0.009757885 0.0007082555 -1.471021e-23)
(0.01021643 0.0005058542 1.000643e-25)
(0.01070786 -0.001064838 -9.807664e-25)
(0.01104168 0.001541128 -1.070927e-24)
(0.009958351 0.002231047 2.676796e-24)
(0.01013451 0.0008597577 -1.230415e-23)
(0.00864113 5.613436e-05 -3.046307e-23)
(0.01026681 0.000722591 0)
(0.01002059 0.0005190389 1.878605e-23)
(0.01125676 -0.0002772617 -2.206349e-25)
(0.01070946 0.0004602974 0)
(0.009326836 0.00011976 3.005774e-23)
(0.009330061 0.0006843732 5.799544e-24)
(0.009501005 8.40034e-05 1.560105e-23)
(0.0111944 0.001365057 1.063429e-23)
(0.009976975 0.001009025 -1.685713e-24)
(0.0113527 -0.0004427046 2.480945e-25)
(0.01154955 0.0005423292 0)
(0.01000096 0.0002043553 4.925674e-25)
(0.01141336 -0.0002088819 0)
(0.009838356 0.0005054054 -3.046085e-23)
(0.006808229 0.002881332 2.780268e-23)
(0.01002165 0.0003305274 -2.338171e-23)
(0.0112717 0.000350641 -3.084969e-24)
(0.01041053 0.0005971134 0)
(0.01111001 -0.0005886952 -2.09982e-25)
(0.008615207 0.002449306 -3.14276e-23)
(0.00954541 3.595487e-07 -3.049939e-23)
(0.009975883 0.000515934 0)
(0.01062051 0.0002998336 -1.031026e-23)
(0.005672599 0.001815635 4.656382e-23)
(0.01065326 0.001020521 -2.788361e-25)
(0.009401152 -6.756811e-05 -8.16555e-24)
(0.01155264 0.0005157427 -1.989786e-24)
(0.01021054 0.0006122976 -1.758366e-24)
(0.01006032 0.00180594 0)
(0.01066039 0.0006676721 0)
(0.01091381 0.0006797072 -2.924023e-24)
(0.01011982 0.000480383 -4.896422e-24)
(0.007252383 0.000530099 0)
(0.00980386 0.0001046777 1.272124e-23)
(0.009144252 -0.0002381635 -1.512368e-23)
(0.007903488 0.0005180406 -2.653475e-23)
(0.01118744 -0.0004761812 -1.62628e-26)
(0.01067632 0.0009857735 -1.418494e-23)
(0.01151808 0.0005455866 -2.372724e-24)
(0.01055566 0.0008325386 0)
(0.01137374 -0.0004640887 1.742343e-25)
(0.008030637 -0.001550773 -4.201934e-24)
(0.01152491 -8.737585e-05 0)
(0.009786845 -0.001419208 6.576544e-25)
(0.01106063 -0.000613526 -6.089246e-25)
(0.008425795 0.001411485 -2.339674e-23)
(0.008602053 0.001964113 0)
(0.009201839 0.001709391 1.863836e-23)
(0.009165903 0.001474236 0)
(0.009900935 0.0006643461 -5.709098e-24)
(0.01054866 0.001827726 -3.631177e-24)
(0.0106405 0.001327236 -4.01167e-24)
(0.01015276 0.0005909999 6.421319e-24)
(0.01019202 0.000691859 0)
(0.01000805 0.0001546238 0)
(0.01033435 0.001472956 0)
(0.01073626 0.001246548 1.20241e-23)
(0.01023931 -0.00132699 -6.717031e-24)
(0.01019978 0.0009894711 0)
(0.008125779 0.002858609 -7.784644e-24)
(0.01000728 -0.001435735 4.776099e-24)
(0.01029536 0.0002442907 0)
(0.0112478 0.00126464 -7.002139e-24)
(0.008647288 0.0007504945 0)
(0.01076581 0.0006242872 0)
(0.0101401 0.0004988327 -1.904683e-23)
(0.0109326 -0.0009686124 1.296781e-24)
(0.01125278 0.0001268161 -3.349851e-24)
(0.009905631 0.000586872 0)
(0.009765559 0.0009944145 5.153085e-24)
(0.01132894 0.001183946 -4.841191e-24)
(0.01059518 0.0007239345 -7.076259e-24)
(0.01137861 0.0007640589 1.592516e-26)
(0.01139349 -0.0002929631 -1.93799e-24)
(0.01147155 -0.0001984012 4.195826e-26)
(0.01067461 0.0008279278 1.113348e-23)
(0.01053968 0.001070458 1.836324e-23)
(0.009402511 -0.001555882 -8.957294e-24)
(0.01033519 0.001381111 4.550958e-24)
(0.01062877 -0.001181971 0)
(0.01089909 0.0009522515 -5.491286e-24)
(0.0108342 -0.0010486 0)
(0.0111896 0.0001646973 0)
(0.009324293 0.001251559 1.873554e-23)
(0.01129736 0.00115522 2.465503e-24)
(0.00911676 0.001063347 0)
(0.006790895 2.847597e-05 -4.322158e-23)
(0.009765143 0.0008367879 -8.809147e-24)
(0.01027488 0.0006731525 -4.791218e-24)
(0.01126613 0.0008418084 4.344418e-24)
(0.01126614 -0.0006140954 4.000165e-25)
(0.009415126 0.0005241935 -1.993839e-23)
(0.01092903 0.0003658855 6.125336e-24)
(0.01079777 0.0008033652 -1.218568e-23)
(0.0093212 -4.519619e-05 5.277763e-25)
(0.01084697 -2.918333e-05 1.12294e-24)
(0.01116469 -9.942577e-05 -2.338955e-24)
(0.01024378 0.0001665598 1.463076e-24)
(0.01009986 0.000600284 -1.168166e-23)
(0.01091712 0.0001722888 7.792916e-25)
(0.01136929 0.0003690339 -6.202641e-25)
(0.009583638 0.0004431845 -2.863649e-23)
(0.007699503 0.0007312761 -3.275004e-23)
(0.007182549 0.0019724 0)
(0.00944177 0.0005533084 -1.633461e-23)
(0.01051047 0.002071804 -1.011816e-23)
(0.01148257 0.0001284382 -2.593362e-24)
(0.0105481 0.001866548 0)
(0.01116209 -0.0004384243 -1.240291e-24)
(0.01129046 -0.0004272963 -8.148574e-25)
(0.01008492 0.000523152 -2.247108e-23)
(0.01029213 0.0008447935 1.917173e-23)
(0.009549691 0.0003845536 6.404411e-25)
(0.008486862 -0.001531907 6.404131e-24)
(0.006323436 0.001553501 -3.698387e-23)
(0.0113971 -9.479639e-05 2.725568e-24)
(0.01078505 0.000100282 -6.164291e-24)
(0.0112097 0.0009764715 8.30215e-24)
(0.00912669 0.0007240923 -1.402824e-25)
(0.009748757 0.001052888 -1.206105e-25)
(0.01096208 -0.0008799843 1.536091e-24)
(0.01100808 0.0004923971 -6.519931e-24)
(0.008523397 -0.001638656 3.710734e-24)
(0.009545622 0.0009764848 -8.885266e-24)
(0.01019522 0.0005869651 -3.908711e-24)
(0.01085374 2.003507e-05 -7.653245e-25)
(0.0113026 0.001246136 -1.160898e-24)
(0.01107256 0.0001953487 6.101756e-24)
(0.009689785 0.0002636361 2.588906e-23)
(0.009000519 2.553179e-05 -2.137774e-23)
(0.01089462 0.001510102 8.493638e-24)
(0.009939452 0.001662879 2.471058e-24)
(0.008305021 0.001086727 1.783573e-23)
(0.0100256 0.000429945 1.700016e-23)
(0.00944292 -0.001493901 0)
(0.01128373 0.001260938 5.131111e-24)
(0.01106556 0.001072676 -7.577318e-24)
(0.008227283 0.001653315 3.064467e-24)
(0.009931961 0.0003975111 6.542808e-24)
(0.01119783 -0.0004167393 -1.648544e-24)
(0.01131868 -0.0005371339 0)
(0.01139067 0.0002761254 7.055937e-25)
(0.01082979 0.001617148 -6.804388e-24)
(0.0101883 0.001041812 3.114068e-23)
(0.01025809 0.001431619 0)
(0.01036476 0.001173836 1.599943e-23)
(0.01132912 0.0001786519 -6.573366e-24)
(0.01115853 0.0005307892 6.543214e-24)
(0.01012192 0.001179585 1.192044e-23)
(0.01012681 0.0005140845 -5.485602e-24)
(0.01119596 0.0003675773 3.208543e-25)
(0.01127066 0.0002230716 0)
(0.01131198 0.0008811339 4.426478e-24)
(0.01101148 -0.0008865519 6.829398e-25)
(0.008595093 -0.001474502 5.909566e-24)
(0.008480445 -0.001568484 -8.821138e-25)
(0.008155649 -0.001643865 2.221945e-24)
(0.01102535 -0.0002841214 1.787164e-24)
(0.01143077 0.0008078165 0)
(0.009642905 0.0008587363 1.55056e-23)
(0.01044879 0.0007397567 0)
(0.008592593 0.0004391701 2.133659e-23)
(0.008937114 -0.000106262 -5.305843e-23)
(0.01077378 0.0006673674 2.213528e-23)
(0.0100776 0.0005367121 8.41257e-25)
(0.01033675 0.000726478 -1.779442e-23)
(0.01004242 0.001299731 7.696494e-24)
(0.009766583 0.0001694109 -1.020238e-23)
(0.01031131 0.0009422419 8.976063e-24)
(0.01034195 0.000848873 1.098271e-23)
(0.01011637 0.0003532955 0)
(0.01030862 0.0008583578 8.989208e-24)
(0.01028942 0.0007226528 9.330717e-24)
(0.0103878 0.0007189469 -1.237856e-23)
(0.009513004 0.0008963154 0)
(0.008556265 0.0007061297 -6.479431e-25)
(0.0111124 0.0009519366 2.029487e-24)
(0.01015995 0.0007493493 1.546586e-23)
(0.01010212 0.0005025012 -1.759914e-23)
(0.0112076 0.0007591415 3.314215e-24)
(0.01139632 3.400064e-05 0)
(0.01121873 0.0006732955 -8.483274e-24)
(0.01123329 -0.0004665142 0)
(0.01151562 2.829723e-05 -1.253296e-24)
(0.008386569 -0.001610037 4.517993e-24)
(0.01125205 -5.686658e-05 -2.303447e-24)
(0.01020839 0.001786065 -7.567564e-24)
(0.009604248 0.001459526 1.467213e-23)
(0.009995623 0.001737524 3.001868e-23)
(0.009885034 0.0014602 2.220953e-23)
(0.01143243 0.0003533955 0)
(0.00903971 0.001581527 1.596471e-23)
(0.01127999 0.0009331999 -4.610707e-24)
(0.01027558 -0.0004936263 0)
(0.01088489 0.001366227 0)
(0.008368716 0.0009198231 -1.84351e-23)
(0.01019711 0.0006169401 0)
(0.01093387 0.0005740362 1.739922e-23)
(0.01014918 0.001058516 4.268898e-24)
(0.01028868 0.002063851 7.685949e-24)
(0.009441459 0.0003767849 4.193303e-23)
(0.01062097 0.0004928036 0)
(0.01150891 -0.000136 -1.532031e-25)
(0.0104074 0.000442685 9.545956e-24)
(0.00992653 0.0001251684 3.395643e-23)
(0.009659047 0.0005010004 5.371623e-24)
(0.009539053 0.0005606603 -2.050674e-23)
(0.008452753 0.001910493 -2.373987e-23)
(0.0104152 0.0008033757 0)
(0.008062021 -0.0002128648 -2.024823e-23)
(0.01119737 -0.0003859921 -2.218208e-24)
(0.01020525 0.0004797782 1.955637e-23)
(0.007723944 0.0004530864 -2.285077e-23)
(0.009667989 0.00191284 3.936903e-24)
(0.01025338 0.000552901 -3.010308e-23)
(0.006260561 0.002769688 1.787247e-23)
(0.01117499 0.0009686909 -9.361355e-24)
(0.009367608 -0.001290255 -1.071345e-24)
(0.01088017 -4.43659e-05 -5.110613e-24)
(0.01090502 -0.0001452458 -2.061877e-24)
(0.0090025 0.0001165045 -2.268212e-24)
(0.01003451 0.0006978673 -2.512937e-23)
(0.01148179 0.0008163849 0)
(0.009461384 0.002382895 0)
(0.01020105 0.0004398047 -1.245374e-23)
(0.01055196 -0.001154796 0)
(0.009815834 0.001986266 -2.411011e-24)
(0.009262214 0.0009234015 -1.773377e-23)
(0.01129408 0.0001755079 -8.795347e-24)
(0.01119975 0.0004441113 2.85916e-24)
(0.009600929 0.0008536887 3.655989e-23)
(0.009954406 0.0008513729 0)
(0.01014387 0.001332459 -1.402055e-23)
(0.01028454 0.0007871838 1.742969e-23)
(0.01119013 0.0005644108 2.806476e-24)
(0.01135351 0.0009573195 1.227511e-24)
(0.01155867 0.0004647495 0)
(0.009556456 0.0001534141 3.952667e-23)
(0.00774266 0.002317435 -4.28655e-23)
(0.0066649 0.001087174 -3.631668e-23)
(0.009636594 0.0004593495 0)
(0.01117823 6.480886e-05 3.938744e-25)
(0.01146809 -0.0001607334 3.087275e-25)
(0.009953268 0.0006803132 -8.369776e-24)
(0.01147668 0.0004821487 3.322085e-24)
(0.01130122 -0.0004560128 -6.666394e-25)
(0.009305168 0.0003674734 4.341517e-24)
(0.009864643 0.002325034 0)
(0.010004 0.00237073 2.30952e-24)
(0.0102524 0.0003107884 -3.962793e-24)
(0.009293236 7.781616e-05 -1.892421e-24)
(0.007999295 -0.001660453 4.670077e-24)
(0.009404759 0.0003248831 -7.008541e-24)
(0.009114233 0.0001332844 -1.438966e-23)
(0.01043308 0.0006730874 0)
(0.009598591 0.0002165756 1.384938e-23)
(0.009512153 0.0001932076 -1.4746e-23)
(0.0113441 -0.0003793018 2.551113e-24)
(0.01125528 -0.0002456328 -8.303528e-25)
(0.01012537 0.0002829476 2.41389e-23)
(0.01112383 -0.0007945224 1.540732e-24)
(0.01000043 0.0005000015 1.576478e-23)
(0.009130122 0.0003411053 -1.730696e-23)
(0.00918916 -6.138183e-05 -4.210698e-23)
(0.01099106 -0.0006101418 -3.14285e-24)
(0.01102688 -0.0003237952 -2.429596e-24)
(0.0111457 0.001372698 7.094279e-24)
(0.01071695 0.001851514 5.491657e-24)
(0.01094439 0.0007175754 8.775966e-24)
(0.009774516 -0.001473357 3.74048e-24)
(0.01068604 -0.001105036 0)
(0.01040244 0.001699251 0)
(0.009944625 0.0003200589 -1.117272e-23)
(0.01139981 0.0004228333 4.176639e-24)
(0.01016935 0.001235389 -7.142631e-24)
(0.01037976 0.001210323 -6.741969e-24)
(0.01083912 0.001133129 -7.482127e-24)
(0.01091107 0.001419746 0)
(0.01048793 0.00110764 -6.127259e-24)
(0.01051567 0.001291186 -6.002e-24)
(0.009680275 0.0003704546 2.944016e-23)
(0.01089603 0.001720238 7.079193e-24)
(0.01106762 -2.805619e-05 2.754258e-25)
(0.01069198 -0.001139094 0)
(0.01152827 -3.744568e-05 5.054064e-27)
(0.01124212 -0.0002210959 1.524622e-24)
(0.00998498 0.000665229 -1.384855e-23)
(0.008544888 0.0002795722 3.409868e-23)
(0.01042963 -0.001276764 -2.221781e-24)
(0.009876411 0.000603648 -2.566789e-23)
(0.009888399 0.0007156874 1.390711e-23)
(0.008473199 0.0005532954 -1.444887e-25)
(0.009974822 -0.0008537775 -1.438313e-23)
(0.01037914 0.0005615772 0)
(0.01030655 0.001563278 -1.491212e-23)
(0.008985776 0.001266575 -1.615563e-23)
(0.008862676 -0.001401432 4.629453e-24)
(0.01075029 2.002599e-05 2.736112e-24)
(0.01109047 -0.0008360743 3.75955e-24)
(0.009700267 0.0001299903 3.355885e-23)
(0.01013439 0.001732749 1.533917e-23)
(0.007313176 0.002835365 0)
(0.01017791 0.0004572331 1.130105e-23)
(0.00836989 -0.001469139 -5.556713e-24)
(0.009843256 0.0009006836 1.459046e-25)
(0.009247203 0.001871055 2.967863e-23)
(0.008838202 -0.0002132312 4.645885e-23)
(0.01003138 0.0004854131 0)
(0.009819733 4.054465e-05 -2.598073e-23)
(0.009921569 0.0002290956 -1.780666e-23)
(0.0111328 -7.807624e-05 -3.767021e-24)
(0.01102269 0.0009552175 0)
(0.01105091 0.0009720377 -4.099998e-24)
(0.009912815 0.0009851882 0)
(0.01013872 0.0004797376 0)
(0.008592603 0.002787959 0)
(0.009855111 0.0004562102 0)
(0.009923126 0.001351163 1.430397e-23)
(0.009395451 -0.0002587254 -1.884312e-23)
(0.009531572 0.000418402 0)
(0.0100989 0.001076277 1.193303e-23)
(0.00935013 0.0005895058 0)
(0.007843675 0.002872884 1.275685e-23)
(0.01125426 -0.0004830033 0)
(0.01081453 0.001065315 -7.071502e-24)
(0.009799061 0.0005201244 0)
(0.007982018 -9.439196e-05 2.367454e-23)
(0.009804262 0.0006463879 -1.534129e-23)
(0.01150349 0.000241705 0)
(0.01113291 0.0001403868 -2.358992e-24)
(0.008990764 0.0004828565 -2.42042e-23)
(0.009985162 0.0002532865 0)
(0.01073633 -0.0007937654 4.150377e-25)
(0.01047892 -0.001221119 0)
(0.01086285 0.0004826458 -8.697911e-24)
(0.01067688 0.0006220869 -2.935954e-24)
(0.008672384 -0.0001668651 0)
(0.01117771 -0.0005909301 5.616732e-26)
(0.01118494 0.0009635149 1.831502e-25)
(0.01001676 0.0005478887 -2.551886e-23)
(0.01005645 -0.001417511 0)
(0.01063654 0.0007671406 0)
(0.009948716 9.09161e-05 2.45158e-23)
(0.009241438 0.0005100618 0)
(0.01019712 0.002267773 -4.604279e-25)
(0.01038032 0.0006972437 -6.173312e-24)
(0.01125032 -0.0003127924 -3.140037e-24)
(0.01046042 0.0003931452 0)
(0.009447592 -0.0001500576 -1.808462e-23)
(0.01131812 0.001132765 -9.663987e-24)
(0.01023005 0.000674112 -8.211425e-24)
(0.01055882 -0.0004169151 0)
(0.009861392 0.001023523 -5.758978e-24)
(0.01017023 0.0006616716 0)
(0.01010956 0.001723997 0)
(0.01104351 0.0008649451 0)
(0.007998081 0.001000136 2.153151e-23)
(0.01021964 -0.0009034341 -1.953577e-23)
(0.01023171 0.0005173031 0)
(0.01116386 -2.519391e-05 -2.327371e-24)
(0.01127473 -0.0003464865 1.476559e-24)
(0.01048738 0.001635702 7.282987e-24)
(0.01111435 0.000550177 -7.780345e-24)
(0.01021378 0.0003457551 0)
(0.01086553 0.001193265 -9.367388e-24)
(0.009484153 -1.754687e-05 1.77065e-23)
(0.009451407 0.0001308366 -1.143827e-23)
(0.009608655 0.000284772 -1.564896e-23)
(0.01008403 0.0004637068 -7.454989e-24)
(0.008771799 -0.0001138602 3.347927e-23)
(0.007964663 0.0001354576 1.245636e-23)
(0.01024204 0.0002027359 7.190042e-24)
(0.01149161 -0.000200002 0)
(0.01094922 0.001566698 0)
(0.01124934 -0.0001429582 -5.037171e-24)
(0.01114435 -0.000460334 9.156408e-25)
(0.0114729 0.0008584923 2.869239e-24)
(0.01004007 0.0008007733 -2.16973e-23)
(0.008952457 0.0002701785 -1.431427e-23)
(0.01137895 0.0005375462 0)
(0.01110978 0.0004245809 -1.30433e-24)
(0.01007169 0.0005671696 0)
(0.009647179 0.001960301 -8.222167e-24)
(0.009021914 0.002154626 -8.352593e-25)
(0.01021916 0.002263182 -1.738676e-23)
(0.009660173 0.00248641 -9.415429e-25)
(0.008821717 0.001630185 3.857354e-29)
(0.01015711 0.0009036675 8.005545e-24)
(0.00921712 0.002352512 5.794537e-24)
(0.00959645 0.00163628 7.839365e-24)
(0.01132505 0.0004756386 3.315406e-24)
(0.01066499 0.00087009 0)
(0.01018067 0.0008762828 1.883229e-23)
(0.01115539 0.000795462 0)
(0.01030784 0.0008835702 0)
(0.01001004 0.00159446 0)
(0.01010649 0.0003252292 0)
(0.01151753 0.0001127513 -1.273376e-24)
(0.01132242 0.0006604934 2.108766e-24)
(0.01002407 0.0007024456 0)
(0.01005355 0.001968354 8.428814e-24)
(0.01094452 0.001224759 4.380345e-24)
(0.01031122 0.0006273504 5.733716e-24)
(0.01122558 -0.0005741088 -1.287792e-25)
(0.01139671 -0.0003758077 -5.248658e-25)
(0.01080583 -0.0008529263 -3.269828e-24)
(0.01020178 0.0004015258 0)
(0.01109138 -0.0007266818 7.073128e-26)
(0.00818953 0.0002917114 5.105208e-23)
(0.009237543 0.000248804 -4.546237e-23)
(0.009161823 0.0001673165 5.944113e-23)
(0.008877071 0.0006888473 1.946883e-23)
(0.008950811 0.0003212727 0)
(0.01057358 0.000700483 0)
(0.009681367 0.0004977027 0)
(0.01062637 0.0009437105 0)
(0.009821765 0.0001845979 0)
(0.0112321 -0.0006731781 0)
(0.01014362 0.0006910513 2.175526e-23)
(0.009751059 -0.001457554 2.19628e-24)
(0.01010602 0.0005283579 0)
(0.01011383 0.0006158233 6.478787e-24)
(0.009996926 0.002027556 0)
(0.009854569 0.001081238 1.018677e-23)
(0.009839737 0.001267526 -3.491591e-23)
(0.009500716 0.001129166 0)
(0.01124088 0.001304527 -3.138024e-24)
(0.008492858 -0.001288463 6.243278e-24)
(0.01044667 0.001015514 8.640368e-24)
(0.01020646 0.0005149387 -9.035607e-24)
(0.008205171 -0.001411468 3.554249e-24)
(0.008819069 0.0008106697 0)
(0.01107106 0.0005468097 0)
(0.01061123 -0.001179308 0)
(0.01001117 0.0002516118 1.800286e-23)
(0.01008391 0.0002673908 4.489941e-25)
(0.009930905 0.0008601328 0)
(0.009689083 0.001146326 0)
(0.01017027 0.0005458175 1.105205e-23)
(0.01084221 0.0007057248 8.030292e-26)
(0.0101969 0.0007995049 0)
(0.01139851 0.001061063 -4.595093e-24)
(0.01135592 7.044328e-05 -5.607551e-24)
(0.01033756 0.0005603746 -9.746809e-24)
(0.009542605 -0.0003743313 0)
(0.007304487 0.002225341 0)
(0.006917381 0.002336966 -2.557266e-23)
(0.01058087 0.00106513 -2.29493e-23)
(0.008945949 -0.001508311 3.975203e-24)
(0.0103942 0.001602299 -1.087491e-23)
(0.009982036 0.001869346 -6.908624e-24)
(0.01046451 0.001914988 -1.02784e-23)
(0.009331391 0.002065984 -6.796886e-24)
(0.01119418 -0.0002067496 -1.421222e-24)
(0.01046625 0.0008399107 4.874511e-24)
(0.0108927 0.0008914938 2.258414e-24)
(0.009468204 0.0008998345 -7.677467e-24)
(0.009635619 0.001209565 -1.975834e-23)
(0.01110042 0.001218185 0)
(0.009224028 0.00113954 1.581126e-23)
(0.009373942 0.0008782856 -3.229223e-23)
(0.01008691 0.0006521507 1.295173e-23)
(0.01006029 0.0005857486 -6.929136e-24)
(0.01052288 -0.0008409104 0)
(0.01148405 -0.000215512 0)
(0.007306076 0.001342653 5.873887e-23)
(0.01056486 0.0004918482 0)
(0.009730081 -0.0003737994 0)
(0.01112896 0.0001843855 -2.314398e-24)
(0.01061457 0.0007755132 0)
(0.01041257 3.028659e-05 -9.929767e-24)
(0.01096233 -0.0009538151 1.746384e-24)
(0.01067559 0.001758665 1.891075e-23)
(0.01153202 7.61035e-05 -2.706916e-24)
(0.01098218 0.0002596947 8.839718e-24)
(0.01073757 0.0002314878 0)
(0.01028664 0.001060082 1.149081e-25)
(0.009728894 0.00031964 -2.00513e-23)
(0.007684357 0.000850508 0)
(0.008504182 0.001064334 2.333536e-23)
(0.01043716 0.0007151419 -5.38893e-24)
(0.01009719 0.0004114491 1.261971e-23)
(0.01012648 0.0004447396 -1.884407e-23)
(0.01133173 -0.0004557486 -4.129416e-25)
(0.01009346 0.0005419893 -1.046864e-23)
(0.01012269 0.0005910251 0)
(0.01070641 -0.0007646604 4.061628e-24)
(0.01127564 0.000465591 0)
(0.009634634 0.0003948413 -3.221921e-24)
(0.009973452 0.001441501 -1.750467e-23)
(0.01118348 -0.0007260541 0)
(0.01097527 5.331238e-05 0)
(0.01042052 -0.001276959 0)
(0.00799338 0.0002301051 -2.482964e-23)
(0.01130305 0.001183019 9.920977e-24)
(0.008574364 0.0002017953 -3.07687e-23)
(0.01054316 0.0005486465 -2.139247e-25)
(0.01076771 0.0007802227 -5.068479e-24)
(0.01048637 -0.001224979 1.16673e-24)
(0.011232 0.0008685227 -1.853545e-25)
(0.01149641 4.474049e-05 -2.662272e-24)
(0.009842887 0.0001486691 0)
(0.01013522 0.000944316 -8.44638e-24)
(0.008514612 -0.001489206 8.639944e-26)
(0.008307735 -0.001556202 8.51726e-25)
(0.008781185 -0.001513042 -3.291508e-24)
(0.01072243 0.0006009117 -9.382511e-24)
(0.01094814 0.001427742 -7.253351e-24)
(0.01043839 0.001045097 1.136967e-23)
(0.01047523 0.001974153 -1.247328e-23)
(0.01041986 0.00189957 -4.083335e-24)
(0.009353964 -0.001490354 0)
(0.009025255 -0.001593103 0)
(0.009864973 0.0006781815 -1.746085e-23)
(0.01137095 0.0008112918 0)
(0.01112617 0.00114573 0)
(0.009372447 -0.001553921 2.288353e-24)
(0.01131937 -0.0003424038 -4.660608e-25)
(0.01095342 0.0005427234 -1.451338e-23)
(0.009492897 -0.0002021817 0)
(0.01108374 -0.0007029951 1.744427e-25)
(0.01006654 0.0003964509 1.118589e-23)
(0.01152 0.0006469287 0)
(0.01154045 0.0006030094 2.15051e-24)
(0.01133032 0.0007827609 2.311877e-24)
(0.008215058 -0.001645487 -2.616034e-24)
(0.01122268 -0.0004234202 -9.681206e-25)
(0.01118634 -0.0007335494 1.10961e-24)
(0.009771495 0.001675497 -1.363728e-24)
(0.01097827 -0.0001368866 -3.337125e-24)
(0.008237378 0.002663671 5.888015e-24)
(0.01002508 0.0002634788 4.359575e-24)
(0.01000024 3.03586e-05 2.066685e-23)
(0.009964086 0.0006363772 -2.387945e-23)
(0.01105258 -0.0003403776 1.761932e-24)
(0.01045057 0.00181532 8.422564e-25)
(0.008691322 0.002786619 -2.051204e-23)
(0.01130284 0.0001238449 -6.588702e-24)
(0.01128176 0.000113965 7.825738e-24)
(0.01146793 0.0002818983 0)
(0.01126654 -0.0005213588 -1.121757e-24)
(0.01128464 0.001274001 -3.420446e-24)
(0.01058824 0.002021444 -1.722793e-23)
(0.01145428 0.0009196424 8.79268e-25)
(0.01145896 0.0008547811 0)
(0.01103642 0.0006541064 0)
(0.01065106 0.001166623 0)
(0.01002363 0.0007194844 -1.75915e-23)
(0.0104879 0.0009776168 -8.422045e-24)
(0.01046648 0.0008914921 0)
(0.01087472 -0.0009505807 0)
(0.0112434 0.0009336082 -5.410041e-24)
(0.008499105 0.002299997 0)
(0.009417379 -0.0001828561 4.676117e-23)
(0.009688516 0.0005593696 -4.249694e-24)
(0.009199582 0.0005389932 0)
(0.01137925 0.0009386413 0)
(0.008959664 -0.00160492 -1.077096e-23)
(0.008123872 0.001914454 0)
(0.008129806 0.002791213 -1.397169e-23)
(0.0104138 0.001647645 1.080459e-23)
(0.01093922 -0.0002569687 -1.414219e-24)
(0.01087632 0.001106459 1.64953e-23)
(0.009269214 -0.0002997067 7.56894e-24)
(0.009262005 -2.831312e-05 -2.39746e-23)
(0.01134356 0.0003426992 -2.679262e-24)
(0.01135325 -0.000476867 3.152443e-26)
(0.01114106 -0.0006943089 2.699827e-25)
(0.008800534 -0.001296962 6.135772e-24)
(0.009345939 0.0002083267 0)
(0.009900865 0.0007728505 0)
(0.01020056 0.0007758773 0)
(0.01002512 0.0007608092 -8.726616e-24)
(0.009715626 0.0002786737 0)
(0.009558267 -0.00112109 7.162867e-24)
(0.0111736 0.0005494096 -2.091335e-24)
(0.0101388 0.0005609629 -1.455671e-23)
(0.01121891 0.0004787737 0)
(0.01105637 0.000442885 -9.501066e-24)
(0.009207826 -0.001582491 0)
(0.01045693 0.0001737424 -1.210165e-23)
(0.01012514 0.00230227 0)
(0.01035844 -0.001280542 4.776251e-24)
(0.01109427 0.0005335776 0)
(0.01101242 -0.0001991129 -4.327913e-25)
(0.01062906 -0.001184535 -1.091954e-24)
(0.01101029 0.0003027106 5.651403e-24)
(0.007841822 -0.000111181 0)
(0.01124241 0.0006301281 1.253994e-23)
(0.009015733 0.0006314897 -1.671254e-23)
(0.01079584 -4.21748e-06 -3.711926e-24)
(0.007973082 0.00133762 7.651116e-24)
(0.01140813 0.0004756975 0)
(0.01147879 9.404561e-06 -9.954841e-25)
(0.008750013 -0.001053296 5.300749e-24)
(0.01037445 0.0009384863 1.234448e-23)
(0.01098554 0.0008638896 0)
(0.009439533 0.0008132471 -2.96648e-23)
(0.01069593 -0.0006078419 8.969846e-24)
(0.01126972 -0.0002886725 1.53483e-24)
(0.01137302 -0.0001580752 -1.378001e-24)
(0.009730454 0.0003606216 -1.96451e-23)
(0.009924083 0.0008551468 5.808544e-25)
(0.01042721 0.0005863802 0)
(0.01154157 0.00049114 8.776785e-25)
(0.01020044 0.0005587163 -5.998267e-24)
(0.01071911 0.0008063069 -2.680405e-24)
(0.01057965 0.0008334165 -1.238559e-23)
(0.0108634 0.0009213498 0)
(0.009803028 0.0001282317 -1.880433e-24)
(0.009526141 -6.353232e-05 0)
(0.01079773 0.001380848 1.61457e-24)
(0.009847187 0.0007319743 -1.201185e-23)
(0.01092098 0.0007084276 -1.21058e-23)
(0.01058542 -0.001161036 1.860732e-24)
(0.01115224 -0.0006603574 5.75779e-26)
(0.009945411 0.0005489488 2.577476e-24)
(0.009902627 0.0001891134 2.9942e-23)
(0.009732037 0.0001169672 -1.51253e-23)
(0.01081323 0.0009553432 0)
(0.01031493 -0.001325165 2.104572e-24)
(0.008693547 5.476072e-07 8.565712e-24)
(0.01116659 0.000413534 7.471198e-24)
(0.009264954 0.0007661818 1.286656e-23)
(0.01005241 0.0001091615 8.471807e-24)
(0.009698003 0.0006834986 1.093279e-23)
(0.009070114 0.00100808 -1.11769e-23)
(0.009851485 0.0008454301 -4.51997e-24)
(0.008061025 -0.00140987 -5.542053e-24)
(0.00873405 0.002246163 -7.719077e-24)
(0.01000107 4.244321e-05 -1.330332e-23)
(0.009878706 0.0009412362 -3.813796e-24)
(0.01099972 0.001330909 2.255912e-24)
(0.01092114 -0.0009093499 0)
(0.009941599 0.0001962555 -1.473808e-23)
(0.01073529 0.00131436 5.418392e-24)
(0.01153944 -7.26946e-06 9.185499e-25)
(0.008223027 0.002770756 5.274056e-23)
(0.01057516 0.000792348 -1.480722e-23)
(0.005768508 0.0007554749 -4.270879e-24)
(0.009585419 0.0003753324 -1.673352e-23)
(0.009991477 0.0001926403 1.854093e-23)
(0.009631175 0.001494927 0)
(0.009278499 0.001375135 -8.787023e-24)
(0.008971499 0.001512938 -2.006599e-23)
(0.008853784 0.001364889 -2.042357e-23)
(0.009515188 0.001289334 0)