# Force and moment coefficients
# dragDir      : (1.0000000e+00 0.0000000e+00 0.0000000e+00)
# sideDir      : (0.0000000e+00 0.0000000e+00 -1.0000000e+00)
# liftDir      : (0.0000000e+00 1.0000000e+00 0.0000000e+00)
# rollAxis     : (1.0000000e+00 0.0000000e+00 0.0000000e+00)
# pitchAxis    : (0.0000000e+00 0.0000000e+00 -1.0000000e+00)
# yawAxis      : (0.0000000e+00 1.0000000e+00 0.0000000e+00)
# magUInf      : 2.0000000e+01
# lRef         : 1.0000000e+00
# Aref         : 7.9000000e-01
# CofR         : (0.0000000e+00 0.0000000e+00 0.0000000e+00)
#
# Time         	Cd             	Cd(f)          	Cd(r)          	Cl             	Cl(f)          	Cl(r)          	CmPitch        	CmRoll         	CmYaw          	Cs             	Cs(f)          	Cs(r)          
0.000240964    	2.8047343e+02	1.4023671e+02	1.4023671e+02	4.8918823e-02	-2.2612020e-03	5.1180025e-02	-2.6720614e-02	2.6253100e-17	7.2644995e-18	-1.4622347e-17	-4.6674206e-20	-1.4575673e-17
0.000318755    	4.2353207e+00	2.1176604e+00	2.1176604e+00	2.2270436e-01	1.1838725e-01	1.0431711e-01	7.0350732e-03	-7.5840939e-22	2.8715755e-21	-8.4879233e-21	-1.3723862e-21	-7.1155371e-21
0.000388547    	7.5824543e-01	3.7912271e-01	3.7912271e-01	5.5968043e-02	2.1634248e-02	3.4333795e-02	-6.3497736e-03	-7.8969916e-20	-1.9141046e-20	3.4297861e-20	-1.9921156e-21	3.6289976e-20
0.000462552    	5.3077209e-01	2.6538605e-01	2.6538605e-01	2.4025750e-02	1.4080080e-02	9.9456694e-03	2.0672055e-03	-5.3844902e-20	-1.2254739e-20	2.0320266e-20	-2.0946060e-21	2.2414872e-20
0.000537696    	5.1972483e-01	2.5986242e-01	2.5986242e-01	1.0120638e-02	1.1105141e-02	-9.8450283e-04	6.0448221e-03	-3.8732697e-20	-8.1145020e-21	1.1939474e-20	-2.1447652e-21	1.4084239e-20
0.000612841    	5.3220015e-01	2.6610008e-01	2.6610008e-01	6.7221916e-03	9.3440175e-03	-2.6218259e-03	5.9829217e-03	-2.8198409e-20	-5.2559978e-21	6.1813263e-21	-2.1653346e-21	8.3466609e-21
0.000687121    	5.5008341e-01	2.7504171e-01	2.7504171e-01	5.8675549e-03	7.4781272e-03	-1.6105723e-03	4.5443497e-03	-2.0646287e-20	-3.2254434e-21	2.1267631e-21	-2.1620619e-21	4.2888249e-21
0.00076        	5.5588636e-01	2.7794318e-01	2.7794318e-01	3.7138416e-03	5.4654395e-03	-1.7515978e-03	3.6085186e-03	-1.5044911e-20	-1.7240039e-21	-8.5932168e-22	-2.1536648e-21	1.2943431e-21
0.000831791    	5.5788888e-01	2.7894444e-01	2.7894444e-01	8.4789069e-04	3.4414798e-03	-2.5935891e-03	3.0175344e-03	-1.0547104e-20	-5.1551105e-22	-3.2255433e-21	-2.1282827e-21	-1.0972606e-21
0.000902522    	5.4726699e-01	2.7363350e-01	2.7363350e-01	-1.9579303e-03	1.4634913e-03	-3.4214216e-03	2.4424565e-03	-6.9898709e-21	4.3941846e-22	-5.0920009e-21	-2.1065820e-21	-2.9854189e-21
0.000972733    	5.3842059e-01	2.6921030e-01	2.6921030e-01	-4.8028861e-03	9.6153607e-05	-4.8990397e-03	2.4975967e-03	-3.9944649e-21	1.2389548e-21	-6.6534136e-21	-2.0877520e-21	-4.5656616e-21
0.00104218     	5.2979283e-01	2.6489641e-01	2.6489641e-01	-6.7815173e-03	-1.3234290e-03	-5.4580883e-03	2.0673297e-03	-1.6570190e-21	1.8582917e-21	-7.8404740e-21	-2.0619454e-21	-5.7785287e-21
0.00111111     	5.1885232e-01	2.5942616e-01	2.5942616e-01	-8.2823879e-03	-2.1668929e-03	-6.1154950e-03	1.9743010e-03	2.8127192e-22	2.3704047e-21	-8.8156397e-21	-2.0374152e-21	-6.7782246e-21
0.0011798      	5.0394284e-01	2.5197142e-01	2.5197142e-01	-9.3954661e-03	-2.8958749e-03	-6.4995913e-03	1.8018582e-03	1.8882602e-21	2.7922013e-21	-9.6084821e-21	-2.0120398e-21	-7.5964423e-21
0.00124824     	4.9422738e-01	2.4711369e-01	2.4711369e-01	-1.0554297e-02	-3.4878715e-03	-7.0664253e-03	1.7892769e-03	3.1921576e-21	3.1318260e-21	-1.0242345e-20	-1.9893467e-21	-8.2529987e-21
0.00131643     	4.8664819e-01	2.4332409e-01	2.4332409e-01	-1.1285335e-02	-3.9583154e-03	-7.3270197e-03	1.6843522e-03	4.2470060e-21	3.4045578e-21	-1.0746943e-20	-1.9689137e-21	-8.7780293e-21
0.00138437     	4.8139555e-01	2.4069777e-01	2.4069777e-01	-1.2158543e-02	-4.0296553e-03	-8.1288881e-03	2.0496164e-03	5.0998347e-21	3.6221854e-21	-1.1147817e-20	-1.9517230e-21	-9.1960937e-21
0.00145206     	4.7522867e-01	2.3761434e-01	2.3761434e-01	-1.2265496e-02	-4.2770177e-03	-7.9884788e-03	1.8557305e-03	5.7772991e-21	3.7943856e-21	-1.1459891e-20	-1.9355601e-21	-9.5243313e-21
0.00151951     	4.6926675e-01	2.3463337e-01	2.3463337e-01	-1.1516672e-02	-4.2877187e-03	-7.2289532e-03	1.4706172e-03	6.3022905e-21	3.9272255e-21	-1.1679027e-20	-1.9122878e-21	-9.7667388e-21
0.00158671     	4.6485617e-01	2.3242809e-01	2.3242809e-01	-1.1872273e-02	-4.4345512e-03	-7.4377217e-03	1.5015852e-03	6.7167545e-21	4.0296969e-21	-1.1860548e-20	-1.9005773e-21	-9.9599711e-21
0.00165367     	4.5968194e-01	2.2984097e-01	2.2984097e-01	-1.1672979e-02	-4.4600010e-03	-7.2129783e-03	1.3764887e-03	7.0248222e-21	4.1042147e-21	-1.1981987e-20	-1.8867786e-21	-1.0095208e-20
0.00172062     	4.5553681e-01	2.2776840e-01	2.2776840e-01	-1.1968402e-02	-4.4221164e-03	-7.5462857e-03	1.5620846e-03	7.2633072e-21	4.1619238e-21	-1.2082665e-20	-1.8794087e-21	-1.0203256e-20
0.00178734     	4.5133520e-01	2.2566760e-01	2.2566760e-01	-1.2239264e-02	-4.3156348e-03	-7.9236292e-03	1.8039972e-03	7.4137620e-21	4.1955949e-21	-1.2138881e-20	-1.8738457e-21	-1.0265035e-20
0.00185405     	4.4762922e-01	2.2381461e-01	2.2381461e-01	-1.2393723e-02	-4.2768035e-03	-8.1169197e-03	1.9200581e-03	7.5189013e-21	4.2168896e-21	-1.2169074e-20	-1.8676472e-21	-1.0301426e-20
0.00192076     	4.4411108e-01	2.2205554e-01	2.2205554e-01	-1.2345330e-02	-4.1954237e-03	-8.1499061e-03	1.9772412e-03	7.5659887e-21	4.2234052e-21	-1.2169147e-20	-1.8611684e-21	-1.0307979e-20
0.00198772     	4.4072504e-01	2.2036252e-01	2.2036252e-01	-1.1925915e-02	-4.1270652e-03	-7.7988500e-03	1.8358924e-03	7.5763128e-21	4.2202812e-21	-1.2151764e-20	-1.8556005e-21	-1.0296163e-20
0.00205493     	4.3709038e-01	2.1854519e-01	2.1854519e-01	-1.1824541e-02	-4.1034320e-03	-7.7211094e-03	1.8088387e-03	7.5431138e-21	4.2065475e-21	-1.2115333e-20	-1.8511188e-21	-1.0264214e-20
0.00212214     	4.3538633e-01	2.1769317e-01	2.1769317e-01	-1.2192478e-02	-3.9603889e-03	-8.2320895e-03	2.1358503e-03	7.4685069e-21	4.1806442e-21	-1.2057978e-20	-1.8483450e-21	-1.0209633e-20
0.00218961     	4.3254351e-01	2.1627176e-01	2.1627176e-01	-1.2061026e-02	-3.8755729e-03	-8.1854532e-03	2.1549401e-03	7.3716036e-21	4.1492260e-21	-1.1986144e-20	-1.8438459e-21	-1.0142298e-20
0.00225733     	4.2882789e-01	2.1441394e-01	2.1441394e-01	-1.1601694e-02	-3.8391676e-03	-7.7625266e-03	1.9616795e-03	7.2480660e-21	4.1101774e-21	-1.1895503e-20	-1.8375741e-21	-1.0057929e-20
0.00232531     	4.2399780e-01	2.1199890e-01	2.1199890e-01	-1.1029723e-02	-3.7111154e-03	-7.3186080e-03	1.8037463e-03	7.0899649e-21	4.0641868e-21	-1.1789591e-20	-1.8306087e-21	-9.9589822e-21
0.00239355     	4.1964942e-01	2.0982471e-01	2.0982471e-01	-1.0792943e-02	-3.8034736e-03	-6.9894694e-03	1.5929979e-03	6.9125958e-21	4.0135156e-21	-1.1682951e-20	-1.8279599e-21	-9.8549911e-21
0.00246206     	4.1712253e-01	2.0856127e-01	2.0856127e-01	-1.0867626e-02	-3.8231792e-03	-7.0444472e-03	1.6106340e-03	6.7292114e-21	3.9598694e-21	-1.1572758e-20	-1.8265096e-21	-9.7462483e-21
0.00253083     	4.1439934e-01	2.0719967e-01	2.0719967e-01	-1.0907722e-02	-3.6795246e-03	-7.2281972e-03	1.7743363e-03	6.5294238e-21	3.9021014e-21	-1.1450938e-20	-1.8233676e-21	-9.6275705e-21
0.00259988     	4.1050855e-01	2.0525427e-01	2.0525427e-01	-1.0897717e-02	-3.8133341e-03	-7.0843827e-03	1.6355243e-03	6.3189154e-21	3.8408603e-21	-1.1320240e-20	-1.8192596e-21	-9.5009801e-21
0.0026692      	4.0931693e-01	2.0465847e-01	2.0465847e-01	-1.1068887e-02	-3.7632806e-03	-7.3056063e-03	1.7711628e-03	6.1004984e-21	3.7780367e-21	-1.1189413e-20	-1.8166700e-21	-9.3727434e-21
0.00273908     	4.0701923e-01	2.0350961e-01	2.0350961e-01	-1.1433350e-02	-3.6655849e-03	-7.7677647e-03	2.0510899e-03	5.8782612e-21	3.7142478e-21	-1.1056505e-20	-1.8140048e-21	-9.2425005e-21
0.00280954     	4.0500331e-01	2.0250165e-01	2.0250165e-01	-1.0563839e-02	-3.7396876e-03	-6.8241519e-03	1.5422322e-03	5.6518096e-21	3.6480802e-21	-1.0908521e-20	-1.8061803e-21	-9.1023406e-21
0.00288028     	4.0374168e-01	2.0187084e-01	2.0187084e-01	-1.1467034e-02	-3.9245467e-03	-7.5424875e-03	1.8089704e-03	5.4188544e-21	3.5798101e-21	-1.0761705e-20	-1.8010422e-21	-8.9606624e-21
0.00295161     	4.0035673e-01	2.0017837e-01	2.0017837e-01	-1.0783325e-02	-3.8201759e-03	-6.9631495e-03	1.5714868e-03	5.1806515e-21	3.5106954e-21	-1.0607991e-20	-1.7933000e-21	-8.8146907e-21
0.00302355     	3.9781282e-01	1.9890641e-01	1.9890641e-01	-1.0508559e-02	-3.7247000e-03	-6.7838592e-03	1.5295796e-03	4.9397197e-21	3.4407961e-21	-1.0454682e-20	-1.7865450e-21	-8.6681372e-21
0.0030961      	3.9613512e-01	1.9806756e-01	1.9806756e-01	-1.0336632e-02	-3.6755045e-03	-6.6611273e-03	1.4928114e-03	4.6992409e-21	3.3699767e-21	-1.0289776e-20	-1.7749115e-21	-8.5148649e-21
0.00316927     	3.9455758e-01	1.9727879e-01	1.9727879e-01	-1.0471650e-02	-3.5994226e-03	-6.8722272e-03	1.6364023e-03	4.4600085e-21	3.2990812e-21	-1.0127291e-20	-1.7645643e-21	-8.3627266e-21
0.00324309     	3.9262368e-01	1.9631184e-01	1.9631184e-01	-1.0119309e-02	-3.7225382e-03	-6.3967711e-03	1.3371165e-03	4.2217878e-21	3.2274445e-21	-9.9587001e-21	-1.7519056e-21	-8.2067945e-21
0.00331757     	3.9136395e-01	1.9568198e-01	1.9568198e-01	-9.7519004e-03	-3.5597309e-03	-6.1921696e-03	1.3162194e-03	3.9942318e-21	3.1558741e-21	-9.7776247e-21	-1.7329383e-21	-8.0446865e-21
0.00339271     	3.8941754e-01	1.9470877e-01	1.9470877e-01	-8.5705188e-03	-3.1080989e-03	-5.4624199e-03	1.1771605e-03	3.7612599e-21	3.0838789e-21	-9.5922360e-21	-1.7122391e-21	-7.8799969e-21
0.00346855     	3.8683033e-01	1.9341516e-01	1.9341516e-01	-8.3659680e-03	-2.8279549e-03	-5.5380131e-03	1.3550291e-03	3.5276554e-21	3.0124044e-21	-9.4147851e-21	-1.6949882e-21	-7.7197969e-21
0.00354473     	3.8598253e-01	1.9299126e-01	1.9299126e-01	-8.5369520e-03	-2.5316356e-03	-6.0053164e-03	1.7368404e-03	3.2974885e-21	2.9412095e-21	-9.2348310e-21	-1.6762059e-21	-7.5586250e-21
0.00362162     	3.8381363e-01	1.9190681e-01	1.9190681e-01	-7.4138662e-03	-2.3527967e-03	-5.0610695e-03	1.3541364e-03	3.0684784e-21	2.8701681e-21	-9.0455318e-21	-1.6525977e-21	-7.3929340e-21
0.00369924     	3.8139424e-01	1.9069712e-01	1.9069712e-01	-6.4179862e-03	-2.0845529e-03	-4.3334333e-03	1.1244402e-03	2.8433533e-21	2.7997325e-21	-8.8567566e-21	-1.6286458e-21	-7.2281107e-21
0.00377761     	3.7957748e-01	1.8978874e-01	1.8978874e-01	-5.2465572e-03	-2.0173095e-03	-3.2292477e-03	6.0596909e-04	2.6198181e-21	2.7297211e-21	-8.6655564e-21	-1.6030571e-21	-7.0624993e-21
0.00385636     	3.8006608e-01	1.9003304e-01	1.9003304e-01	-4.8931853e-03	-2.0220959e-03	-2.8710895e-03	4.2449681e-04	2.4043582e-21	2.6615492e-21	-8.4831308e-21	-1.5800162e-21	-6.9031146e-21
0.00393589     	3.7791922e-01	1.8895961e-01	1.8895961e-01	-6.2680031e-03	-1.6905167e-03	-4.5774864e-03	1.4434849e-03	2.1871678e-21	2.5942470e-21	-8.3157166e-21	-1.5636113e-21	-6.7521053e-21
0.00401621     	3.7669338e-01	1.8834669e-01	1.8834669e-01	-7.7579637e-03	-1.6147926e-03	-6.1431711e-03	2.2641893e-03	1.9746434e-21	2.5276069e-21	-8.1474121e-21	-1.5460991e-21	-6.6013129e-21
0.00409693     	3.7274520e-01	1.8637260e-01	1.8637260e-01	-6.1961157e-03	-1.6915283e-03	-4.5045874e-03	1.4065296e-03	1.7549504e-21	2.4601307e-21	-7.9555710e-21	-1.5176548e-21	-6.4379162e-21
0.00417807     	3.7252422e-01	1.8626211e-01	1.8626211e-01	-5.0865261e-03	-1.5321118e-03	-3.5544142e-03	1.0111512e-03	1.5476169e-21	2.3954957e-21	-7.7803893e-21	-1.4946989e-21	-6.2856904e-21
0.00426005     	3.7249657e-01	1.8624829e-01	1.8624829e-01	-4.3767243e-03	-1.6379773e-03	-2.7387471e-03	5.5038491e-04	1.3438271e-21	2.3322991e-21	-7.6096809e-21	-1.4725413e-21	-6.1371396e-21
0.00434246     	3.7178431e-01	1.8589216e-01	1.8589216e-01	-4.2230833e-03	-1.5693170e-03	-2.6537662e-03	5.4222460e-04	1.1435388e-21	2.2700111e-21	-7.4448311e-21	-1.4524044e-21	-5.9924267e-21
0.00442574     	3.7087730e-01	1.8543865e-01	1.8543865e-01	-3.7075659e-03	-1.2722421e-03	-2.4353238e-03	5.8154089e-04	9.4545407e-22	2.2088319e-21	-7.2814933e-21	-1.4319148e-21	-5.8495786e-21
0.00450948     	3.7001212e-01	1.8500606e-01	1.8500606e-01	-3.7640918e-03	-1.0091101e-03	-2.7549817e-03	8.7293577e-04	7.4844364e-22	2.1483442e-21	-7.1229993e-21	-1.4131554e-21	-5.7098439e-21
0.00459366     	3.6932675e-01	1.8466337e-01	1.8466337e-01	-3.6338809e-03	-9.0169375e-04	-2.7321871e-03	9.1524668e-04	5.5551143e-22	2.0895949e-21	-6.9714214e-21	-1.3961159e-21	-5.5753056e-21
0.00467831     	3.6764357e-01	1.8382179e-01	1.8382179e-01	-3.4169372e-03	-1.1117371e-03	-2.3052001e-03	5.9673149e-04	3.6866884e-22	2.0324225e-21	-6.8242116e-21	-1.3796833e-21	-5.4445283e-21
0.00476391     	3.6602205e-01	1.8301103e-01	1.8301103e-01	-3.4364890e-03	-1.2890370e-03	-2.1474520e-03	4.2920751e-04	1.8593768e-22	1.9767804e-21	-6.6833327e-21	-1.3648860e-21	-5.3184468e-21
0.00484999     	3.6444257e-01	1.8222129e-01	1.8222129e-01	-3.1237951e-03	-1.3322988e-03	-1.7914962e-03	2.2959870e-04	4.4884567e-24	1.9217669e-21	-6.5444898e-21	-1.3504780e-21	-5.1940117e-21
0.00493656     	3.6467938e-01	1.8233969e-01	1.8233969e-01	-2.0749444e-03	-1.3430521e-03	-7.3189231e-04	-3.0557988e-04	-1.6989758e-22	1.8682188e-21	-6.4018107e-21	-1.3326866e-21	-5.0691241e-21
0.00502363     	3.6451070e-01	1.8225535e-01	1.8225535e-01	-1.7453971e-03	-1.2546401e-03	-4.9075705e-04	-3.8194152e-04	-3.3510022e-22	1.8165834e-21	-6.2697309e-21	-1.3182820e-21	-4.9514489e-21
0.00511121     	3.6297368e-01	1.8148684e-01	1.8148684e-01	-1.4388416e-03	-9.2266793e-04	-5.1617364e-04	-2.0324714e-04	-5.0093394e-22	1.7658711e-21	-6.1397963e-21	-1.3040271e-21	-4.8357692e-21
0.00519931     	3.6184468e-01	1.8092234e-01	1.8092234e-01	-1.1857596e-03	-6.2312700e-04	-5.6263262e-04	-3.0247190e-05	-6.6418366e-22	1.7166656e-21	-6.0167699e-21	-1.2917194e-21	-4.7250505e-21
0.00528847     	3.6104378e-01	1.8052189e-01	1.8052189e-01	-7.9425346e-04	-5.1074807e-04	-2.8350539e-04	-1.1362134e-04	-8.2555431e-22	1.6688302e-21	-5.8996271e-21	-1.2809833e-21	-4.6186438e-21
0.00537818     	3.5976086e-01	1.7988043e-01	1.7988043e-01	-7.1038725e-04	-5.6573050e-04	-1.4465675e-04	-2.1053687e-04	-9.8450367e-22	1.6218799e-21	-5.7873510e-21	-1.2717957e-21	-4.5155554e-21
0.00546844     	3.5930817e-01	1.7965408e-01	1.7965408e-01	-1.3892878e-04	-3.9887176e-04	2.5994297e-04	-3.2940736e-04	-1.1387489e-21	1.5766732e-21	-5.6793090e-21	-1.2629813e-21	-4.4163277e-21
0.00555926     	3.5836930e-01	1.7918465e-01	1.7918465e-01	1.6724684e-04	-3.9717875e-04	5.6442559e-04	-4.8080217e-04	-1.2922471e-21	1.5324109e-21	-5.5786309e-21	-1.2569045e-21	-4.3217264e-21
0.00565066     	3.5706370e-01	1.7853185e-01	1.7853185e-01	-1.9146844e-04	-4.6470590e-04	2.7323746e-04	-3.6897168e-04	-1.4462360e-21	1.4892435e-21	-5.4885889e-21	-1.2550510e-21	-4.2335379e-21
0.00574264     	3.5642794e-01	1.7821397e-01	1.7821397e-01	-2.1967320e-04	-7.0669777e-04	4.8702458e-04	-5.9686117e-04	-1.6000264e-21	1.4472779e-21	-5.4043181e-21	-1.2548812e-21	-4.1494370e-21
0.00583522     	3.5699474e-01	1.7849737e-01	1.7849737e-01	2.9513219e-04	-8.2845211e-04	1.1235843e-03	-9.7601821e-04	-1.7407840e-21	1.4073440e-21	-5.3212885e-21	-1.2533002e-21	-4.0679883e-21
0.00592841     	3.5461636e-01	1.7730818e-01	1.7730818e-01	-2.1781684e-04	-6.3001171e-04	4.1219487e-04	-5.2110329e-04	-1.8860066e-21	1.3683283e-21	-5.2525470e-21	-1.2579453e-21	-3.9946018e-21
0.00602222     	3.5319104e-01	1.7659552e-01	1.7659552e-01	4.3577149e-04	-4.9796253e-04	9.3373402e-04	-7.1584828e-04	-2.0308842e-21	1.3296991e-21	-5.1795173e-21	-1.2600595e-21	-3.9194577e-21
0.00611666     	3.5286476e-01	1.7643238e-01	1.7643238e-01	8.4092367e-04	-4.1029452e-04	1.2512182e-03	-8.3075635e-04	-2.1694914e-21	1.2929177e-21	-5.1122895e-21	-1.2632270e-21	-3.8490625e-21
0.00621176     	3.5222152e-01	1.7611076e-01	1.7611076e-01	1.0125202e-03	-3.6580474e-04	1.3783250e-03	-8.7206486e-04	-2.3058328e-21	1.2571957e-21	-5.0531485e-21	-1.2693786e-21	-3.7837699e-21
0.00630751     	3.5229647e-01	1.7614823e-01	1.7614823e-01	1.6505185e-03	-3.1976598e-04	1.9702845e-03	-1.1450252e-03	-2.4389610e-21	1.2226956e-21	-4.9962326e-21	-1.2754207e-21	-3.7208119e-21
0.00640393     	3.5116294e-01	1.7558147e-01	1.7558147e-01	2.2191711e-03	-1.7788696e-04	2.3970580e-03	-1.2874725e-03	-2.5683042e-21	1.1891805e-21	-4.9426522e-21	-1.2821456e-21	-3.6605066e-21
0.00650105     	3.5008650e-01	1.7504325e-01	1.7504325e-01	2.5471204e-03	-2.1976872e-04	2.7668891e-03	-1.4933289e-03	-2.6972567e-21	1.1566175e-21	-4.8958270e-21	-1.2912960e-21	-3.6045310e-21
0.00659887     	3.4940297e-01	1.7470149e-01	1.7470149e-01	2.9222228e-03	-2.2363011e-04	3.1458529e-03	-1.6847415e-03	-2.8217497e-21	1.1253441e-21	-4.8517314e-21	-1.3005216e-21	-3.5512098e-21
0.00669668     	3.4993403e-01	1.7496701e-01	1.7496701e-01	2.2609889e-03	-4.4563777e-04	2.7066266e-03	-1.5761322e-03	-2.9401408e-21	1.0957250e-21	-4.8169463e-21	-1.3127481e-21	-3.5041982e-21
0.00679523     	3.4909982e-01	1.7454991e-01	1.7454991e-01	2.7314710e-03	-2.9995747e-04	3.0314285e-03	-1.6656930e-03	-3.0583836e-21	1.0664650e-21	-4.7779965e-21	-1.3225333e-21	-3.4554633e-21
0.00689451     	3.4862506e-01	1.7431253e-01	1.7431253e-01	2.8588655e-03	-3.2081304e-04	3.1796786e-03	-1.7502458e-03	-3.1721174e-21	1.0384576e-21	-4.7436368e-21	-1.3333608e-21	-3.4102760e-21
0.00699455     	3.4836397e-01	1.7418198e-01	1.7418198e-01	2.6169036e-03	-4.2248411e-04	3.0393877e-03	-1.7309359e-03	-3.2825694e-21	1.0114429e-21	-4.7136135e-21	-1.3453639e-21	-3.3682496e-21
0.00709537     	3.4732120e-01	1.7366060e-01	1.7366060e-01	2.2229357e-03	-3.0186446e-04	2.5248002e-03	-1.4133323e-03	-3.3877056e-21	9.8543722e-22	-4.6838990e-21	-1.3565123e-21	-3.3273867e-21
0.00719619     	3.4809132e-01	1.7404566e-01	1.7404566e-01	2.4956047e-03	-2.8686242e-04	2.7824671e-03	-1.5346648e-03	-3.4808986e-21	9.6115059e-22	-4.6581096e-21	-1.3679042e-21	-3.2902054e-21
0.00729781     	3.4582495e-01	1.7291247e-01	1.7291247e-01	2.9989094e-03	-5.8891941e-04	3.5878288e-03	-2.0883741e-03	-3.5788584e-21	9.3658894e-22	-4.6223818e-21	-1.3746020e-21	-3.2477798e-21
0.00740024     	3.4633462e-01	1.7316731e-01	1.7316731e-01	2.8071512e-03	-7.1894710e-04	3.5260983e-03	-2.1225227e-03	-3.6713140e-21	9.1354185e-22	-4.5935131e-21	-1.3832147e-21	-3.2102984e-21
0.00750268     	3.4735557e-01	1.7367778e-01	1.7367778e-01	2.1495653e-03	-6.5047368e-04	2.8000390e-03	-1.7252563e-03	-3.7489322e-21	8.9212538e-22	-4.5706108e-21	-1.3931800e-21	-3.1774308e-21
0.00760596     	3.4671318e-01	1.7335659e-01	1.7335659e-01	2.1138812e-03	-4.2736338e-04	2.5412445e-03	-1.4843040e-03	-3.8278366e-21	8.7060796e-22	-4.5358508e-21	-1.3973174e-21	-3.1385334e-21
0.00771012     	3.4602403e-01	1.7301201e-01	1.7301201e-01	1.9269687e-03	-5.1246459e-04	2.4394333e-03	-1.4759490e-03	-3.9044940e-21	8.5014429e-22	-4.5047391e-21	-1.4022252e-21	-3.1025138e-21
0.00781427     	3.4608217e-01	1.7304108e-01	1.7304108e-01	1.8465950e-03	-4.6728943e-04	2.3138844e-03	-1.3905869e-03	-3.9738580e-21	8.3031751e-22	-4.4675185e-21	-1.4034418e-21	-3.0640768e-21
0.00791932     	3.4562079e-01	1.7281039e-01	1.7281039e-01	1.6411729e-03	-3.6332126e-04	2.0044941e-03	-1.1839077e-03	-4.0389134e-21	8.1161149e-22	-4.4332205e-21	-1.4049987e-21	-3.0282217e-21
0.00802529     	3.4585111e-01	1.7292555e-01	1.7292555e-01	1.0858399e-03	-5.5862785e-04	1.6444677e-03	-1.1015478e-03	-4.0994071e-21	7.9365443e-22	-4.3993939e-21	-1.4060425e-21	-2.9933514e-21
0.00813126     	3.4516594e-01	1.7258297e-01	1.7258297e-01	9.9424217e-04	-2.6215551e-04	1.2563977e-03	-7.5927660e-04	-4.1556447e-21	7.7626115e-22	-4.3621239e-21	-1.4048008e-21	-2.9573231e-21
0.00823818     	3.4591615e-01	1.7295808e-01	1.7295808e-01	8.9612030e-04	-3.2227361e-04	1.2183939e-03	-7.7033376e-04	-4.2074131e-21	7.5975232e-22	-4.3224431e-21	-1.4014692e-21	-2.9209739e-21
0.00834609     	3.4661977e-01	1.7330988e-01	1.7330988e-01	1.1525460e-03	-1.5797328e-04	1.3105193e-03	-7.3424629e-04	-4.2566247e-21	7.4375604e-22	-4.2831534e-21	-1.3978206e-21	-2.8853327e-21
0.008454       	3.4591967e-01	1.7295984e-01	1.7295984e-01	1.0120991e-03	-1.9854631e-04	1.2106454e-03	-7.0459584e-04	-4.3025854e-21	7.2838894e-22	-4.2459664e-21	-1.3945943e-21	-2.8513721e-21
0.00856292     	3.4542361e-01	1.7271181e-01	1.7271181e-01	8.0195358e-04	-3.0585810e-04	1.1078117e-03	-7.0683489e-04	-4.3441909e-21	7.1377090e-22	-4.2054957e-21	-1.3889769e-21	-2.8165188e-21
0.00867185     	3.4542617e-01	1.7271308e-01	1.7271308e-01	6.5247829e-04	-1.2767029e-04	7.8014858e-04	-4.5390944e-04	-4.3862138e-21	6.9970034e-22	-4.1700847e-21	-1.3853420e-21	-2.7847427e-21
0.00878183     	3.4385178e-01	1.7192589e-01	1.7192589e-01	3.5639194e-04	-3.2233685e-04	6.7872879e-04	-5.0053282e-04	-4.4278111e-21	6.8605841e-22	-4.1336471e-21	-1.3807651e-21	-2.7528820e-21
0.00889181     	3.4216514e-01	1.7108257e-01	1.7108257e-01	-2.7921085e-05	-5.3098009e-04	5.0305900e-04	-5.1701954e-04	-4.4682824e-21	6.7275733e-22	-4.0983397e-21	-1.3764125e-21	-2.7219272e-21
0.00900289     	3.4194927e-01	1.7097463e-01	1.7097463e-01	-8.4169199e-04	-5.3057002e-04	-3.1112196e-04	-1.0972403e-04	-4.5025739e-21	6.6059183e-22	-4.0692741e-21	-1.3740452e-21	-2.6952289e-21
0.00911397     	3.4264128e-01	1.7132064e-01	1.7132064e-01	-1.0459823e-03	-5.5045625e-04	-4.9552600e-04	-2.7465125e-05	-4.5318012e-21	6.4912704e-22	-4.0341414e-21	-1.3679436e-21	-2.6661977e-21
0.0092262      	3.4219354e-01	1.7109677e-01	1.7109677e-01	-1.0758111e-03	-2.3459140e-04	-8.4121975e-04	3.0331417e-04	-4.5627080e-21	6.3799408e-22	-4.0033894e-21	-1.3637006e-21	-2.6396888e-21
0.00933843     	3.4181493e-01	1.7090746e-01	1.7090746e-01	-8.9601932e-04	-7.1733303e-05	-8.2428601e-04	3.7627636e-04	-4.5925604e-21	6.2689822e-22	-3.9680600e-21	-1.3571318e-21	-2.6109282e-21
0.00945185     	3.4095586e-01	1.7047793e-01	1.7047793e-01	-8.8296902e-04	7.1069381e-05	-9.5403840e-04	5.1255389e-04	-4.6216444e-21	6.1637194e-22	-3.9361626e-21	-1.3517094e-21	-2.5844533e-21
0.00956527     	3.4040535e-01	1.7020267e-01	1.7020267e-01	-1.0929977e-03	4.1309568e-05	-1.1343072e-03	5.8780839e-04	-4.6473713e-21	6.0653405e-22	-3.9071153e-21	-1.3470236e-21	-2.5600917e-21
0.00967994     	3.3990658e-01	1.6995329e-01	1.6995329e-01	-1.3539839e-03	9.5616404e-05	-1.4496003e-03	7.7260835e-04	-4.6735816e-21	5.9719801e-22	-3.8847900e-21	-1.3451970e-21	-2.5395930e-21
0.0097946      	3.3982872e-01	1.6991436e-01	1.6991436e-01	-1.5019274e-03	1.7736958e-04	-1.6792970e-03	9.2833330e-04	-4.6957546e-21	5.8832973e-22	-3.8588251e-21	-1.3410828e-21	-2.5177423e-21
0.00991058     	3.4005695e-01	1.7002847e-01	1.7002847e-01	-1.5641889e-03	3.3928897e-05	-1.5981178e-03	8.1602332e-04	-4.7217453e-21	5.7959420e-22	-3.8367318e-21	-1.3387717e-21	-2.4979601e-21
0.0100265      	3.3843369e-01	1.6921685e-01	1.6921685e-01	-2.3204598e-03	-1.4352894e-05	-2.3061070e-03	1.1458770e-03	-4.7430652e-21	5.7127102e-22	-3.8145072e-21	-1.3359826e-21	-2.4785246e-21
0.0101439      	3.3644213e-01	1.6822106e-01	1.6822106e-01	-2.4390422e-03	-1.3556027e-04	-2.3034820e-03	1.0839609e-03	-4.7660217e-21	5.6313517e-22	-3.7931290e-21	-1.3334293e-21	-2.4596997e-21
0.0102612      	3.3541279e-01	1.6770639e-01	1.6770639e-01	-2.1680950e-03	-1.7002839e-04	-1.9980666e-03	9.1401912e-04	-4.7774311e-21	5.5599462e-22	-3.7673704e-21	-1.3276906e-21	-2.4396798e-21
0.01038        	3.3588085e-01	1.6794043e-01	1.6794043e-01	-2.4212246e-03	1.3012241e-04	-2.5513470e-03	1.3407347e-03	-4.7926632e-21	5.4934676e-22	-3.7517725e-21	-1.3265395e-21	-2.4252330e-21
0.0104987      	3.3616537e-01	1.6808268e-01	1.6808268e-01	-2.2408520e-03	2.2521954e-04	-2.4660715e-03	1.3456455e-03	-4.8046043e-21	5.4286479e-22	-3.7305134e-21	-1.3223919e-21	-2.4081215e-21
0.0106175      	3.3622719e-01	1.6811360e-01	1.6811360e-01	-2.3041001e-03	2.8237494e-04	-2.5864750e-03	1.4344250e-03	-4.8164718e-21	5.3681848e-22	-3.7109166e-21	-1.3186398e-21	-2.3922768e-21
0.0107378      	3.3544362e-01	1.6772181e-01	1.6772181e-01	-2.7580994e-03	-3.4105777e-05	-2.7239936e-03	1.3449439e-03	-4.8291808e-21	5.3094294e-22	-3.6969359e-21	-1.3175250e-21	-2.3794109e-21
0.0108581      	3.3520241e-01	1.6760121e-01	1.6760121e-01	-2.8957233e-03	-7.9761396e-05	-2.8159619e-03	1.3681002e-03	-4.8406596e-21	5.2498907e-22	-3.6795169e-21	-1.3147694e-21	-2.3647475e-21
0.0109784      	3.3520757e-01	1.6760378e-01	1.6760378e-01	-2.4013123e-03	2.9390926e-04	-2.6952216e-03	1.4945654e-03	-4.8518863e-21	5.1928575e-22	-3.6587381e-21	-1.3100833e-21	-2.3486548e-21
0.0110987      	3.3534361e-01	1.6767181e-01	1.6767181e-01	-2.4382527e-03	3.8479787e-04	-2.8230506e-03	1.6039242e-03	-4.8584475e-21	5.1446975e-22	-3.6427329e-21	-1.3068967e-21	-2.3358362e-21
0.0112206      	3.3405495e-01	1.6702747e-01	1.6702747e-01	-2.6546806e-03	2.9286990e-04	-2.9475505e-03	1.6202102e-03	-4.8648201e-21	5.0983268e-22	-3.6270563e-21	-1.3036955e-21	-2.3233608e-21
0.0113425      	3.3374131e-01	1.6687066e-01	1.6687066e-01	-3.2334906e-03	1.3571033e-04	-3.3692009e-03	1.7524556e-03	-4.8685135e-21	5.0561937e-22	-3.6149354e-21	-1.3018483e-21	-2.3130871e-21
0.0114645      	3.3383641e-01	1.6691820e-01	1.6691820e-01	-2.9380539e-03	1.6597550e-04	-3.1040294e-03	1.6350025e-03	-4.8703417e-21	5.0163088e-22	-3.5981657e-21	-1.2974520e-21	-2.3007137e-21
0.0115864      	3.3287764e-01	1.6643882e-01	1.6643882e-01	-2.3007712e-03	2.1831868e-04	-2.5190899e-03	1.3687043e-03	-4.8755601e-21	4.9722302e-22	-3.5772360e-21	-1.2913950e-21	-2.2858410e-21
0.0117083      	3.3271812e-01	1.6635906e-01	1.6635906e-01	-2.2125412e-03	1.8095652e-04	-2.3934977e-03	1.2872271e-03	-4.8784171e-21	4.9356200e-22	-3.5611672e-21	-1.2870216e-21	-2.2741456e-21
0.0118303      	3.3291403e-01	1.6645702e-01	1.6645702e-01	-1.8664071e-03	3.3491147e-04	-2.2013186e-03	1.2681150e-03	-4.8795794e-21	4.9015966e-22	-3.5441190e-21	-1.2818998e-21	-2.2622192e-21
0.0119541      	3.3412388e-01	1.6706194e-01	1.6706194e-01	-2.1938920e-03	3.9592653e-04	-2.5898186e-03	1.4928725e-03	-4.8797912e-21	4.8747521e-22	-3.5346619e-21	-1.2798557e-21	-2.2548062e-21
0.0120778      	3.3422634e-01	1.6711317e-01	1.6711317e-01	-2.1095708e-03	2.9011022e-04	-2.3996810e-03	1.3448956e-03	-4.8794012e-21	4.8454227e-22	-3.5182116e-21	-1.2745635e-21	-2.2436480e-21
0.0122016      	3.3417346e-01	1.6708673e-01	1.6708673e-01	-1.6534751e-03	1.0586740e-04	-1.7593425e-03	9.3260496e-04	-4.8793058e-21	4.8153114e-22	-3.5008639e-21	-1.2689008e-21	-2.2319631e-21
0.0123254      	3.3474729e-01	1.6737365e-01	1.6737365e-01	-1.5105738e-03	3.8492540e-05	-1.5490664e-03	7.9377946e-04	-4.8762326e-21	4.7924315e-22	-3.4876722e-21	-1.2645929e-21	-2.2230793e-21
0.0124492      	3.3464618e-01	1.6732309e-01	1.6732309e-01	-1.2274813e-03	4.5604095e-04	-1.6835223e-03	1.0697816e-03	-4.8721173e-21	4.7711314e-22	-3.4751661e-21	-1.2604699e-21	-2.2146962e-21
0.012573       	3.3414253e-01	1.6707126e-01	1.6707126e-01	-1.4432111e-03	7.8949046e-04	-2.2327016e-03	1.5110960e-03	-4.8687153e-21	4.7494694e-22	-3.4618533e-21	-1.2559797e-21	-2.2058736e-21
0.0126968      	3.3414710e-01	1.6707355e-01	1.6707355e-01	-1.0708850e-03	8.9038377e-04	-1.9612687e-03	1.4258263e-03	-4.8639958e-21	4.7306351e-22	-3.4471150e-21	-1.2504940e-21	-2.1966210e-21
0.0128206      	3.3461226e-01	1.6730613e-01	1.6730613e-01	-9.4614025e-04	7.2244848e-04	-1.6685887e-03	1.1955186e-03	-4.8579898e-21	4.7128080e-22	-3.4306644e-21	-1.2440514e-21	-2.1866130e-21
0.0129443      	3.3497140e-01	1.6748570e-01	1.6748570e-01	-7.8870894e-04	6.4379544e-04	-1.4325044e-03	1.0381499e-03	-4.8524654e-21	4.6969012e-22	-3.4183723e-21	-1.2394960e-21	-2.1788762e-21
0.0130681      	3.3592584e-01	1.6796292e-01	1.6796292e-01	-8.3655702e-04	3.8821358e-04	-1.2247706e-03	8.0649208e-04	-4.8447155e-21	4.6828089e-22	-3.4023151e-21	-1.2328767e-21	-2.1694384e-21
0.0131942      	3.3766145e-01	1.6883072e-01	1.6883072e-01	-2.9609125e-05	4.1902297e-04	-4.4863209e-04	4.3382753e-04	-4.8367810e-21	4.6722511e-22	-3.3881723e-21	-1.2268610e-21	-2.1613112e-21
0.0133202      	3.3808973e-01	1.6904487e-01	1.6904487e-01	3.5956278e-04	2.7146217e-04	8.8100610e-05	9.1680781e-05	-4.8286163e-21	4.6602575e-22	-3.3719424e-21	-1.2199455e-21	-2.1519970e-21
0.0134462      	3.3821690e-01	1.6910845e-01	1.6910845e-01	3.0553641e-04	2.3517705e-04	7.0359355e-05	8.2408849e-05	-4.8203060e-21	4.6501626e-22	-3.3592226e-21	-1.2145951e-21	-2.1446276e-21
0.0135723      	3.3809239e-01	1.6904619e-01	1.6904619e-01	6.1786917e-04	1.7900236e-04	4.3886681e-04	-1.2993222e-04	-4.8123903e-21	4.6383475e-22	-3.3433297e-21	-1.2078301e-21	-2.1354996e-21
0.0136983      	3.3830926e-01	1.6915463e-01	1.6915463e-01	1.0831401e-03	3.6767540e-04	7.1546465e-04	-1.7389462e-04	-4.8037466e-21	4.6272462e-22	-3.3278111e-21	-1.2011809e-21	-2.1266302e-21
0.0138243      	3.3807170e-01	1.6903585e-01	1.6903585e-01	1.5669603e-03	4.1041035e-04	1.1565500e-03	-3.7306982e-04	-4.7940684e-21	4.6181768e-22	-3.3114530e-21	-1.1939088e-21	-2.1175442e-21
0.013953       	3.3823232e-01	1.6911616e-01	1.6911616e-01	1.6538388e-03	3.8540527e-04	1.2684336e-03	-4.4151414e-04	-4.7821261e-21	4.6146859e-22	-3.2976460e-21	-1.1873544e-21	-2.1102916e-21
0.0140816      	3.3885586e-01	1.6942793e-01	1.6942793e-01	1.7471417e-03	4.1738584e-04	1.3297559e-03	-4.5618501e-04	-4.7703672e-21	4.6080363e-22	-3.2807974e-21	-1.1795951e-21	-2.1012023e-21
0.0142103      	3.3869876e-01	1.6934938e-01	1.6934938e-01	1.7882861e-03	1.1457820e-04	1.6737079e-03	-7.7956485e-04	-4.7553871e-21	4.6052066e-22	-3.2654742e-21	-1.1722164e-21	-2.0932577e-21
0.014339       	3.3989728e-01	1.6994864e-01	1.6994864e-01	1.9121259e-03	1.3595231e-04	1.7761736e-03	-8.2011063e-04	-4.7405045e-21	4.6024019e-22	-3.2493896e-21	-1.1644546e-21	-2.0849350e-21
0.0144676      	3.3997171e-01	1.6998585e-01	1.6998585e-01	2.1342254e-03	1.3532465e-05	2.1206929e-03	-1.0535802e-03	-4.7245971e-21	4.6005084e-22	-3.2342728e-21	-1.1570856e-21	-2.0771872e-21
0.0145993      	3.4075668e-01	1.7037834e-01	1.7037834e-01	2.2524503e-03	-1.3317067e-04	2.3856210e-03	-1.2593958e-03	-4.7096953e-21	4.5994841e-22	-3.2181280e-21	-1.1491156e-21	-2.0690124e-21
0.0147311      	3.4037108e-01	1.7018554e-01	1.7018554e-01	2.1068211e-03	-8.5739240e-05	2.1925604e-03	-1.1391498e-03	-4.6930639e-21	4.5989227e-22	-3.2022033e-21	-1.1412094e-21	-2.0609939e-21