/*--------------------------------*- C++ -*----------------------------------*\
| =========                 |                                                 |
| \\      /  F ield         | OpenFOAM: The Open Source CFD Toolbox           |
|  \\    /   O peration     | Version:  2406                                  |
|   \\  /    A nd           | Website:  www.openfoam.com                      |
|    \\/     M anipulation  |                                                 |
\*---------------------------------------------------------------------------*/
FoamFile
{
    version     2.0;
    format      ascii;
    arch        "LSB;label=32;scalar=64";
    class       surfaceScalarField;
    location    "1.76";
    object      phi;
}
// * * * * * * * * * * * * * * * * * * * * * * * * * * * * * * * * * * * * * //

dimensions      [0 3 -1 0 0 0 0];

oriented        oriented;

internalField   nonuniform List<scalar> 
23794
(
0.005871523
-0.005523942
-0.000347581
0.006075384
-0.0002038616
0.006061779
1.360569e-05
0.005705478
0.0003563007
0.004492643
0.001212835
0.001753721
0.002738922
-0.001406898
0.003160619
-0.003215705
0.001808807
-0.003489547
0.0002738421
-0.002454843
-0.001034704
-0.0006466289
-0.001808214
0.0005487636
-0.001195392
0.0009755926
-0.000426829
0.001180214
-0.0002046215
0.002339296
-0.001159082
0.004355137
-0.00201584
0.006285532
-0.001930396
0.007673409
-0.001387877
0.007555435
0.0001179739
0.004926699
0.002628736
0.0006290818
0.004297617
-0.003495153
0.004124235
-0.004833019
0.001337866
-0.002256075
-0.002576944
0.0008870353
-0.00314311
0.003021128
-0.002134092
0.003841784
-0.0008206568
0.003888825
-4.704078e-05
0.004284418
-0.000395593
0.006111505
-0.001827086
0.008927498
-0.002815993
0.008867801
5.969736e-05
0.003741025
0.005126775
-0.0009870083
0.004728034
-0.001249638
0.0002626297
0.0004164644
-0.001666102
-0.001313717
0.001730182
-0.006187388
0.004873671
-0.01027421
0.004086819
-0.01261253
0.002338319
-0.01380134
0.001188818
-0.01446841
0.0006670654
-0.01488799
0.000419584
-0.01515976
0.0002717684
-0.01533158
0.0001718165
-0.01533295
1.373892e-06
-0.01527366
-5.928933e-05
-0.01518736
-8.63052e-05
-0.01506007
-0.0001272837
-0.01492195
-0.0001381238
-0.01472928
-0.000192673
-0.01450063
-0.0002286488
-0.01421643
-0.0002841996
-0.0139118
-0.0003046288
-0.01359232
-0.0003194785
-0.01322145
-0.0003708668
-0.01283375
-0.0003877057
-0.01243944
-0.0003943059
-0.01198297
-0.0004564751
-0.01150561
-0.0004773527
-0.01100507
-0.0005005443
-0.01049904
-0.0005060342
-0.009972765
-0.0005262714
-0.009399141
-0.0005736242
-0.00883409
-0.0005650507
-0.008228999
-0.0006050905
-0.007607358
-0.0006216417
-0.006980711
-0.000626647
-0.006346866
-0.000633845
-0.005683594
-0.0006632714
-0.005019569
-0.0006640256
-0.004348194
-0.0006713746
-0.003663446
-0.000684748
-0.002978823
-0.0006846229
-0.002312679
-0.0006661438
-0.001605551
-0.0007071282
-0.0009261357
-0.0006794154
-0.0002841384
-0.0006419973
0.0003494957
-0.0006336341
0.00110409
-0.0007545946
0.001844101
-0.0007400103
0.002564569
-0.0007204682
0.003269223
-0.0007046547
0.00395598
-0.0006867564
0.004639506
-0.0006835258
0.005300164
-0.0006606583
0.005971146
-0.0006709825
0.006621153
-0.0006500062
0.007234655
-0.0006135023
0.00785139
-0.0006167356
0.008454891
-0.0006035006
0.009034252
-0.0005793607
0.009608755
-0.0005745035
0.0101688
-0.0005600437
0.01067386
-0.0005050638
0.01117366
-0.0004998008
0.011657
-0.0004833409
0.01209891
-0.0004419103
0.01253952
-0.0004406085
0.01292669
-0.0003871704
0.0132856
-0.0003589047
0.01360423
-0.0003186294
0.01387862
-0.0002743885
0.01414582
-0.0002672052
0.01437391
-0.0002280847
0.01456028
-0.0001863748
0.0147012
-0.0001409156
0.01479658
-9.538176e-05
0.01485589
-5.931338e-05
0.01483806
1.78315e-05
0.01476467
7.338943e-05
0.01457571
0.000188961
0.01418517
0.0003905397
0.01357331
0.0006118575
0.01262508
0.0009482308
0.01094515
0.001679928
0.00768969
0.003255464
0.002683503
0.005006187
-0.001605264
0.004288767
-0.004529663
0.002924399
-0.006817948
0.002288285
-0.005990647
-0.0008273001
-0.002687302
-0.003303346
0.002164919
-0.004852221
0.005702902
-0.003537982
-0.0008322443
0.006535146
-0.009982885
0.00915064
-0.01183294
0.001850059
-0.008979295
-0.002853649
-0.005703716
-0.003275578
-0.003355021
-0.002348695
-0.001583237
-0.001771784
0.0009026712
-0.002485908
0.003545107
-0.002642435
0.004244217
-0.0006991101
0.003252192
0.0009920247
0.001912669
0.001339523
0.0006819785
0.00123069
-0.001629904
0.002311882
-0.003916322
0.002286419
-0.004034623
0.0001183009
-0.002258136
-0.001776487
-0.0002090473
-0.002049089
0.001245944
-0.001454991
0.003046002
-0.001800059
0.0041971
-0.001151097
0.004037549
0.0001595511
0.002547883
0.001489666
0.001461541
0.001086342
0.001183078
0.0002784626
0.001149792
3.32866e-05
0.001814666
-0.0006648743
0.002835925
-0.001021259
0.003726506
-0.0008905808
0.004441705
-0.0007151989
0.005051879
-0.0006101739
-0.000472063
0.006895314
-0.006465386
-0.0007775093
0.007188922
-0.0004974694
0.007278776
-7.624858e-05
0.00727867
0.000356407
0.007191693
0.001299812
0.005588755
0.00434186
0.001129344
0.00762003
-0.003083963
0.006022114
-0.003878918
0.001068797
-0.002531405
-0.002382217
-0.0008981
-0.00344152
-0.000265669
-0.001827823
-0.0003510527
-0.0003414454
0.0004665798
-0.001022254
0.002689314
-0.003381816
0.005408626
-0.004735152
0.007804302
-0.004326071
0.009480739
-0.003064314
0.01001469
-0.0004159802
0.008409943
0.004233486
0.003744086
0.008963474
-0.003282009
0.01115033
-0.006754629
0.004810486
-0.003794034
-0.005537539
-0.0005125146
-0.006424629
0.001143034
-0.003789641
0.001726318
-0.001403941
0.001589027
9.025033e-05
0.001633212
-0.000439778
0.00305636
-0.003250234
0.005844799
-0.005604433
0.007702248
-0.001797751
0.005176371
0.007652652
-0.0003342823
0.01023869
-0.005683849
0.005612197
-0.01044786
0.003097906
-0.01508619
0.006368513
-0.01924109
0.009028573
-0.02161159
0.006457321
-0.02217173
0.002898454
-0.02224522
0.001262312
-0.02220343
0.0006252773
-0.02211648
0.000332635
-0.02200374
0.0001590281
-0.02187732
4.539314e-05
-0.02165216
-0.0002237855
-0.02140837
-0.000303084
-0.02114318
-0.0003514962
-0.02083791
-0.0004325509
-0.02052188
-0.0004541501
-0.02014902
-0.0005655362
-0.01974058
-0.0006370912
-0.01927164
-0.0007531374
-0.0187812
-0.0007950691
-0.01828166
-0.0008190128
-0.0177265
-0.0009260273
-0.01715038
-0.0009638288
-0.01657179
-0.0009728991
-0.01592169
-0.001106575
-0.01525196
-0.001147077
-0.01455538
-0.001197126
-0.01385186
-0.001209558
-0.0131307
-0.001247429
-0.01235293
-0.00135139
-0.01158679
-0.001331195
-0.01077905
-0.001412828
-0.009949896
-0.001450797
-0.009118119
-0.001458424
-0.008282062
-0.001469902
-0.007409945
-0.001535389
-0.006535857
-0.001538113
-0.00565553
-0.001551702
-0.004760514
-0.001579764
-0.003867928
-0.001577209
-0.002994943
-0.001539128
-0.002080391
-0.001621681
-0.001197389
-0.001562417
-0.0003569597
-0.001482427
0.000474667
-0.001465261
0.001446463
-0.001726391
0.002405912
-0.001699459
0.003344169
-0.001658726
0.004262154
-0.001622639
0.005161295
-0.001585898
0.006058298
-0.001580529
0.006929035
-0.001531395
0.007811777
-0.001553724
0.008671221
-0.00150945
0.00948642
-0.001428701
0.01030764
-0.001437961
0.01111775
-0.001413605
0.01189788
-0.001359496
0.01267332
-0.00134994
0.01343632
-0.001323046
0.01413489
-0.001203632
0.01483162
-0.001196528
0.01551012
-0.001161846
0.01614244
-0.001074223
0.01677557
-0.001073738
0.01734622
-0.0009578234
0.01789266
-0.000905344
0.01839426
-0.0008202344
0.01884758
-0.0007277077
0.01930005
-0.0007196762
0.01971137
-0.0006394023
0.02007758
-0.0005525818
0.02039803
-0.0004613632
0.02067178
-0.0003691376
0.0209139
-0.0003014373
0.02109697
-0.0001652376
0.02128685
-0.0001164904
0.02145009
2.572287e-05
0.02151381
0.0003268247
0.02150324
0.0006224247
0.02139563
0.001055845
0.02102863
0.002046924
0.01952738
0.004756718
0.01497382
0.009559747
0.00643154
0.01283104
-0.001856861
0.0112128
-0.003106653
0.003538078
-4.542688e-06
-0.003929411
0.001215906
-0.004523794
0.003691874
-0.007328189
0.004192881
-0.00403899
-0.004894145
0.01562217
-0.01292959
0.01718608
-0.01259759
0.001518063
-0.009371642
-0.006079598
-0.005642101
-0.00700512
-0.003055184
-0.004935611
-0.001194457
-0.003632511
0.001358396
-0.005038762
0.00468308
-0.005967119
0.006422664
-0.002438694
0.005544501
0.001870188
0.002679132
0.004204892
-0.000859806
0.004769628
-0.004177782
0.005629858
-0.005606807
0.003715443
-0.004969813
-0.0005186925
-0.002835373
-0.003910927
-0.0003005238
-0.004583938
0.001567125
-0.00332264
0.003782153
-0.004015086
0.005242631
-0.002611575
0.00583466
-0.000432478
0.005122683
0.002201642
0.003527744
0.002681282
0.001967987
0.001838219
0.001323967
0.0006773068
0.002136035
-0.001476943
0.00340204
-0.002287264
0.004446501
-0.001935042
0.005244646
-0.001513343
0.005922398
-0.001287927
-0.001015051
0.007789504
-0.007304313
-0.0012627
0.0081403
-0.0008482656
0.008246164
-0.0001821121
0.008020392
0.0005821784
0.007822129
0.001498075
0.007634602
0.004529388
0.005144588
0.01011004
0.0004466103
0.01072009
-0.002190826
0.003706233
-0.001917182
-0.002655861
-0.001124441
-0.00423426
-0.001214177
-0.001738088
-0.001192818
-0.0003628039
0.0005973942
-0.002812466
0.003514872
-0.006299294
0.006485658
-0.007705938
0.009135819
-0.006976233
0.01108753
-0.005016026
0.0116296
-0.0009580516
0.009993634
0.005869455
0.005927738
0.01302937
-0.00174615
0.01882422
-0.007187565
0.0102519
-0.005777244
-0.006947859
-0.003937489
-0.008264385
-0.003477938
-0.004249192
-0.004034808
-0.0008470708
-0.005281663
0.001337105
-0.005406335
-0.0003151054
-0.003186188
-0.005470382
-8.987571e-05
-0.008700745
0.002434951
-0.004322578
0.00154455
0.008543053
-0.006136942
0.01792018
-0.01647645
0.01595171
-0.02319313
0.009814588
-0.02583709
0.009012465
-0.02654166
0.009733144
-0.02626371
0.006179373
-0.02603142
0.002666163
-0.02605038
0.001281269
-0.02607375
0.0006486543
-0.0260626
0.0003214854
-0.02601197
0.0001083931
-0.02593249
-3.408247e-05
-0.02569463
-0.0004616444
-0.02541422
-0.0005835006
-0.02511152
-0.000654191
-0.02475901
-0.0007850614
-0.02439642
-0.0008167438
-0.02396292
-0.0009990363
-0.02348789
-0.001112124
-0.02293935
-0.001301673
-0.02236401
-0.001370409
-0.02177903
-0.001403987
-0.02112471
-0.001580348
-0.02044529
-0.001643249
-0.01976422
-0.00165397
-0.01899472
-0.001876077
-0.01820187
-0.00193993
-0.01737648
-0.002022511
-0.01654245
-0.002043592
-0.01568726
-0.002102615
-0.01476212
-0.002276539
-0.01385215
-0.002241159
-0.01288977
-0.002375207
-0.01190196
-0.002438611
-0.01091023
-0.002450149
-0.009912877
-0.002467257
-0.008871629
-0.002576636
-0.007827489
-0.002582253
-0.006774644
-0.002604547
-0.005704198
-0.00265021
-0.004635031
-0.002646377
-0.003587542
-0.002586617
-0.0024922
-0.002717023
-0.001432943
-0.002621673
-0.0004228532
-0.002492517
0.000580388
-0.002468502
0.001742667
-0.00288867
0.002892298
-0.002849089
0.004016906
-0.002783334
0.005115641
-0.002721373
0.006191138
-0.002661395
0.007263094
-0.002652486
0.008302405
-0.002570706
0.009355604
-0.002606923
0.01037961
-0.002533453
0.01135024
-0.002399336
0.01232792
-0.002415635
0.01329111
-0.002376795
0.01421796
-0.002286348
0.01513917
-0.002271152
0.01604471
-0.002228589
0.01687215
-0.002031067
0.01769796
-0.002022341
0.01850105
-0.001964938
0.01924744
-0.001820612
0.01999663
-0.001822922
0.02066847
-0.001629663
0.02131234
-0.001549215
0.02190129
-0.001409182
0.0224303
-0.001256718
0.02296014
-0.001249519
0.02343863
-0.001117893
0.02386403
-0.0009779792
0.0242336
-0.0008309363
0.02454716
-0.0006826958
0.0248222
-0.0005764798
0.02501755
-0.0003605875
0.02519747
-0.0002964067
0.02531555
-9.236142e-05
0.02530204
0.0003403355
0.02521278
0.0007116881
0.02509656
0.00117206
0.02502856
0.002114922
0.02517342
0.004611859
0.02437597
0.0103572
0.01941064
0.01779638
0.01240318
0.01822026
0.009162031
0.006779224
0.009615432
-0.004382812
0.009617462
-0.004525824
0.007100465
-0.004811192
0.001776739
0.001284737
-0.007296622
0.02469553
-0.01340983
0.02329929
-0.01267573
0.0007839647
-0.008881344
-0.009873985
-0.004574425
-0.01131204
-0.001774629
-0.007735407
2.971654e-05
-0.005436856
0.002241336
-0.007250381
0.005379226
-0.009105009
0.007116137
-0.004175605
0.006094498
0.002891827
0.002266033
0.008033357
-0.002509868
0.009545529
-0.005766026
0.008886017
-0.006767646
0.004717063
-0.006027055
-0.001259283
-0.003448911
-0.006489071
-0.0003634165
-0.007669433
0.001936412
-0.005622469
0.004615689
-0.006694363
0.006318178
-0.004314064
0.006960676
-0.001074976
0.006565821
0.002596497
0.004940606
0.004306497
0.002669003
0.004109822
0.00159022
0.00175609
0.002534043
-0.002420766
0.0040218
-0.003775021
0.005188395
-0.003101637
0.006022396
-0.002347345
0.0067254
-0.00199093
-0.001593964
0.009304079
-0.008718929
-0.001847851
0.009712258
-0.001256444
0.009841732
-0.0003115865
0.009592049
0.000831861
0.008905812
0.002184312
0.008673886
0.004761314
0.008180794
0.01060314
0.005264875
0.01363601
0.001595026
0.007376081
-0.0001743658
-0.0008864691
-0.001120982
-0.003287644
-0.001928107
-0.000930962
-0.001484183
-0.0008067281
0.0009638781
-0.005260528
0.004123056
-0.009458472
0.007320981
-0.01090386
0.01024104
-0.009896289
0.01243314
-0.00720813
0.01304934
-0.001574249
0.01115944
0.007759353
0.007277891
0.01691092
-0.0002781013
0.02638021
-0.007311597
0.0172854
-0.00892778
-0.005331676
-0.009827543
-0.007364622
-0.01114705
-0.002929689
-0.01268278
0.0006886686
-0.01404044
0.002694763
-0.01405951
-0.0002960376
-0.0118595
-0.007670395
-0.00778887
-0.01277137
-0.004727187
-0.007384261
-0.00709688
0.01091275
-0.0172329
0.0280562
-0.02783896
0.02655777
-0.03173319
0.01370881
-0.03205051
0.009329786
-0.031501
0.00918363
-0.03117633
0.005854711
-0.03137135
0.002861181
-0.03154739
0.001457311
-0.03160885
0.0007101106
-0.0315963
0.0003089319
-0.03151194
2.403383e-05
-0.03139046
-0.000155555
-0.03107557
-0.0007765363
-0.03071705
-0.0009420227
-0.03032955
-0.00104169
-0.02988494
-0.001229668
-0.02943107
-0.001270615
-0.02889345
-0.001536663
-0.02830784
-0.001697735
-0.02763482
-0.001974688
-0.02693065
-0.002074579
-0.02621642
-0.002118215
-0.02542073
-0.002376045
-0.02459519
-0.002468783
-0.02376853
-0.002480633
-0.02283919
-0.002805419
-0.02188005
-0.002899068
-0.02088312
-0.003019439
-0.01987732
-0.003049392
-0.01884756
-0.003132373
-0.01773267
-0.003391435
-0.01663901
-0.003334814
-0.01548146
-0.003532755
-0.01429532
-0.003624758
-0.01310377
-0.003641698
-0.01190654
-0.003664481
-0.01065715
-0.003826027
-0.009404552
-0.003834855
-0.008141219
-0.00386788
-0.006858215
-0.003933214
-0.005573605
-0.003930987
-0.004314388
-0.003845833
-0.002995577
-0.004035834
-0.001717088
-0.003900162
-0.0004936163
-0.003715989
0.0007226937
-0.003684812
0.0021168
-0.004282776
0.003495688
-0.004227978
0.004846729
-0.004134375
0.006163768
-0.004038412
0.007450879
-0.003948505
0.008732735
-0.003934342
0.009975224
-0.003813195
0.01123705
-0.003868747
0.01246183
-0.00375824
0.01362593
-0.003563433
0.0148002
-0.003589902
0.01595548
-0.003532078
0.01707065
-0.003401514
0.01818114
-0.003381647
0.01927019
-0.003317637
0.0202692
-0.003030071
0.02126725
-0.003020398
0.02223705
-0.00293474
0.02314129
-0.002724843
0.02404953
-0.002731171
0.02486612
-0.00244625
0.02564931
-0.002332406
0.02636787
-0.002127737
0.02701831
-0.001907163
0.02766953
-0.001900739
0.02825938
-0.001707743
0.02878851
-0.001507111
0.02925013
-0.001292556
0.02965013
-0.001082689
0.03000383
-0.000930181
0.03026453
-0.0006212943
0.03051101
-0.0005428829
0.03067932
-0.0002606719
0.0306707
0.0003489552
0.03053488
0.0008475108
0.0302969
0.001410039
0.02993687
0.002474948
0.02970734
0.004841393
0.03027151
0.00979303
0.03001231
0.01805558
0.02778939
0.02044317
0.02541454
0.009154075
0.02378736
-0.002755626
0.02147238
-0.002210852
0.01405345
0.002607745
0.002666927
0.01267126
-0.006999336
0.0343618
-0.01235467
0.02865462
-0.01209913
0.0005284306
-0.007745659
-0.01422746
-0.002850287
-0.01620741
0.000361461
-0.01094716
0.00199698
-0.007072375
0.003600282
-0.008853683
0.00587065
-0.01137538
0.006930845
-0.0052358
0.005699766
0.004122906
0.001497814
0.01223531
-0.003812419
0.01485576
-0.007074374
0.01214797
-0.008220424
0.005863114
-0.007533895
-0.001945813
-0.004436672
-0.009586295
-0.0005968361
-0.01150927
0.002313178
-0.008532483
0.005567143
-0.009948327
0.007713884
-0.006460805
0.008442921
-0.001804014
0.007941102
0.003098316
0.006110934
0.006136665
0.003338661
0.006882096
0.001974208
0.003120543
0.003083152
-0.00352971
0.004828398
-0.005520267
0.00619728
-0.00447052
0.007182575
-0.003332639
0.008023674
-0.002832029
-0.002289218
0.01111503
-0.01038157
-0.002581313
0.01162438
-0.001765799
0.01175157
-0.0004387731
0.01145617
0.001127266
0.01061213
0.003028343
0.009743485
0.005629963
0.009755716
0.01059091
0.00875273
0.014639
0.005423886
0.01070493
0.001792803
0.002744614
-0.0008915152
-0.0006033259
-0.002423228
0.0006007512
-0.00153301
-0.001696946
0.001270179
-0.008063717
0.004438256
-0.01262655
0.007887663
-0.01435327
0.01113735
-0.01314598
0.01357882
-0.009649604
0.01421235
-0.002207777
0.01197483
0.009996879
0.008010911
0.02087483
0.0006927971
0.03369832
-0.007948501
0.02592669
-0.0136149
0.0003347278
-0.01794334
-0.003036184
-0.02116595
0.0002929214
-0.02342499
0.002947706
-0.02494262
0.004212389
-0.0252662
2.754606e-05
-0.02388655
-0.00905004
-0.02095165
-0.01570628
-0.01899304
-0.009342867
-0.0230726
0.0149923
-0.03165618
0.03663978
-0.03688866
0.03179026
-0.03731057
0.01413072
-0.03728753
0.009306745
-0.03707026
0.008966357
-0.03704416
0.005828614
-0.03732515
0.003142168
-0.03750678
0.001638942
-0.03760418
0.0008075077
-0.03762636
0.0003311138
-0.0375446
-5.772762e-05
-0.03743934
-0.0002608127
-0.03707792
-0.001137952
-0.03667384
-0.001346103
-0.03623257
-0.001482967
-0.03570985
-0.001752379
-0.03519215
-0.001788319
-0.03455813
-0.002170686
-0.03387277
-0.00238309
-0.03307475
-0.002772708
-0.0322401
-0.002909233
-0.03139679
-0.002961521
-0.03044789
-0.003324943
-0.02946394
-0.003452741
-0.02848206
-0.003462514
-0.02737338
-0.003914095
-0.02622556
-0.004046885
-0.02503344
-0.004211565
-0.0238329
-0.004249928
-0.02260314
-0.004362138
-0.0212649
-0.004729669
-0.01995934
-0.004640382
-0.01857108
-0.004921014
-0.01715195
-0.005043883
-0.01572432
-0.005069326
-0.01429244
-0.005096364
-0.01279484
-0.00532363
-0.0112941
-0.005335591
-0.009778732
-0.00538325
-0.008243458
-0.005468488
-0.006703023
-0.005471422
-0.005193142
-0.005355714
-0.003603877
-0.005625099
-0.002057163
-0.005446876
-0.0005700445
-0.005203107
0.0009049221
-0.005159778
0.002575806
-0.00595366
0.004227091
-0.005879263
0.005846056
-0.00575334
0.0074165
-0.005608857
0.008949165
-0.005481171
0.01047831
-0.005463487
0.01196158
-0.005296464
0.01347444
-0.005381603
0.01493712
-0.005220921
0.0163337
-0.004960011
0.01774529
-0.005001492
0.01912556
-0.004912355
0.02046282
-0.004738767
0.02179943
-0.004718263
0.02310082
-0.004619028
0.02429655
-0.0042258
0.0254935
-0.004217347
0.0266526
-0.00409384
0.02773008
-0.003802319
0.02881795
-0.003819043
0.02979
-0.003418306
0.03072178
-0.00326418
0.03157466
-0.002980615
0.03234229
-0.002674795
0.03311398
-0.002672426
0.03380467
-0.002398434
0.03442747
-0.002129912
0.0349624
-0.001827486
0.03542207
-0.001542364
0.03583144
-0.001339543
0.03611196
-0.0009018181
0.03638315
-0.0008140734
0.03655428
-0.0004318011
0.03651119
0.0003920393
0.03633027
0.001028431
0.03604299
0.001697326
0.03565273
0.002865208
0.03516809
0.005326032
0.03539663
0.009564486
0.03686485
0.01658736
0.03791798
0.01939004
0.03675205
0.01032001
0.03416002
-0.0001636046
0.03104185
0.0009073195
0.02201628
0.01163332
0.006929817
0.02775772
-0.004098333
0.04538995
-0.009146213
0.0337025
-0.009359036
0.0007412539
-0.004896668
-0.01868983
0.0001127835
-0.02121686
0.003636549
-0.01447092
0.004935613
-0.008371439
0.005540094
-0.009458164
0.006249199
-0.01208448
0.006203519
-0.005190119
0.004956027
0.005370398
0.0008098458
0.01638149
-0.004922225
0.02058783
-0.008638986
0.01586473
-0.01027896
0.007503087
-0.009689667
-0.002535105
-0.006000327
-0.01327563
-0.001201895
-0.0163077
0.002517014
-0.01225139
0.0065582
-0.01398951
0.009329397
-0.009232002
0.01032396
-0.002798581
0.009651082
0.003771198
0.007409644
0.008378103
0.004157873
0.01013387
0.002619123
0.004659293
0.003894374
-0.004804961
0.005804233
-0.007430126
0.007316715
-0.005983001
0.008469678
-0.004485602
0.009511865
-0.003874217
-0.003158919
0.01332554
-0.01234306
-0.003563793
0.01399327
-0.002433532
0.01414248
-0.0005879762
0.01379036
0.001479385
0.01284012
0.003978576
0.01143542
0.007034664
0.01076591
0.01126041
0.01028504
0.01511987
0.007625195
0.01336477
0.003320256
0.007049554
-0.000705366
0.003422296
-0.002829937
0.002725322
-0.001537022
-0.002989861
0.001377297
-0.01097804
0.004450364
-0.01569962
0.008211016
-0.01811392
0.0119183
-0.01685326
0.0146937
-0.012425
0.01519952
-0.002713606
0.01218954
0.01300687
0.0078644
0.02519997
0.0007127086
0.04085002
-0.00985071
0.03649011
-0.01994995
0.01043397
-0.0275414
0.004555258
-0.03213874
0.004890267
-0.03497243
0.005781398
-0.03682782
0.006067775
-0.03787826
0.001077989
-0.03826268
-0.008665626
-0.03839151
-0.01557745
-0.03952031
-0.008214065
-0.04288581
0.0183578
-0.04532639
0.03908036
-0.0443497
0.03081357
-0.04376989
0.01355091
-0.04456055
0.0100974
-0.04466358
0.009069393
-0.04479686
0.005961889
-0.0451101
0.003455408
-0.04529103
0.001819878
-0.04536429
0.0008807688
-0.0453548
0.0003216215
-0.04520743
-0.000205103
-0.04505643
-0.0004118035
-0.04460886
-0.00158553
-0.04411207
-0.001842885
-0.04356408
-0.002030958
-0.04290963
-0.002406829
-0.04228996
-0.002407989
-0.04151269
-0.002947956
-0.04068615
-0.003209634
-0.03971868
-0.003740176
-0.03870734
-0.003920578
-0.03769406
-0.003974794
-0.03654661
-0.004472392
-0.03536127
-0.004638082
-0.03418532
-0.004638467
-0.03285217
-0.005247243
-0.0314674
-0.005431653
-0.03003604
-0.005642925
-0.02859447
-0.005691496
-0.02712144
-0.005835169
-0.02550759
-0.006343526
-0.0239484
-0.006199564
-0.02227812
-0.006591293
-0.02057572
-0.006746283
-0.01886345
-0.006781605
-0.01715028
-0.006809535
-0.01535644
-0.007117462
-0.01356289
-0.007129149
-0.01174434
-0.007201794
-0.00990832
-0.007304509
-0.00805705
-0.007322693
-0.006253899
-0.007158865
-0.004343055
-0.007535943
-0.00246623
-0.007323701
-0.0006540363
-0.007015301
0.0011355
-0.006949314
0.003136882
-0.007955042
0.005114075
-0.007856457
0.007038604
-0.007677869
0.008901189
-0.007471441
0.01072658
-0.007306559
0.01255541
-0.007292322
0.0143325
-0.007073556
0.01615623
-0.007205329
0.01790576
-0.006970449
0.01958717
-0.006641429
0.0212927
-0.006707019
0.02294375
-0.0065634
0.02454866
-0.006343683
0.02616868
-0.006338278
0.02772779
-0.006178137
0.02916078
-0.005658795
0.03060279
-0.00565936
0.03199621
-0.005487259
0.03328723
-0.005093338
0.03459915
-0.005130959
0.03576927
-0.004588431
0.03689182
-0.004386722
0.03791747
-0.004006268
0.03884589
-0.003603221
0.03978478
-0.003611312
0.04061659
-0.003230242
0.04138081
-0.002894134
0.04203015
-0.002476821
0.04259814
-0.002110356
0.04310499
-0.001846395
0.04346465
-0.00126148
0.04380736
-0.001156787
0.04404683
-0.0006712684
0.04404829
0.0003905815
0.04385939
0.001217331
0.04354597
0.002010743
0.04311161
0.003299567
0.04256584
0.005871809
0.04232546
0.009804868
0.04332467
0.01558814
0.04469334
0.01802137
0.04377975
0.01123361
0.04072662
0.002889523
0.03792316
0.003710782
0.03045641
0.01910007
0.01481925
0.04339488
0.001953407
0.05825578
-0.002718442
0.03837435
-0.002700994
0.0007238056
0.0008859014
-0.02227672
0.005433649
-0.02576461
0.008314625
-0.0173519
0.009023955
-0.009080769
0.008322638
-0.008756847
0.006956666
-0.01071851
0.005620625
-0.003854078
0.004373001
0.006618022
0.0002687088
0.02048578
-0.00616452
0.02702106
-0.01077871
0.02047892
-0.01315147
0.009875846
-0.01274808
-0.002938495
-0.008350454
-0.01767326
-0.002372962
-0.02228519
0.002432688
-0.01705704
0.007612581
-0.01916941
0.01119096
-0.01281038
0.01259737
-0.004204988
0.01179249
0.004576073
0.00907728
0.01109332
0.005392683
0.01381846
0.00379634
0.006255636
0.005213058
-0.00622168
0.007107887
-0.009324955
0.008620908
-0.007496022
0.009912091
-0.005776785
0.01121594
-0.005178062
-0.004286042
0.01608869
-0.01478334
-0.004869142
0.01696513
-0.003309971
0.01718463
-0.0008074832
0.01672931
0.001934708
0.01556085
0.005147043
0.01379212
0.008803389
0.01211864
0.01293389
0.01079409
0.01644443
0.008191552
0.0159673
0.003835715
0.01140539
-0.0008811478
0.008139159
-0.003250111
0.005094285
-0.001594179
-0.004645792
0.001235154
-0.01380737
0.004115464
-0.01857993
0.008339286
-0.02233774
0.0127094
-0.02122337
0.01594905
-0.01566465
0.01616534
-0.002929899
0.01154951
0.01762271
0.006060668
0.03068881
-0.001222078
0.04813276
-0.01371138
0.04897941
-0.02723777
0.02396036
-0.0369185
0.01423599
-0.04204584
0.01001761
-0.04519167
0.00892723
-0.04739543
0.008271532
-0.0492436
0.002926164
-0.05131861
-0.006590617
-0.05420224
-0.01269382
-0.05766901
-0.004747296
-0.05931878
0.02000757
-0.05631596
0.03607754
-0.05242058
0.02691819
-0.05250108
0.01363141
-0.05349419
0.01109051
-0.05352598
0.009101178
-0.05365127
0.006087183
-0.05396271
0.003766849
-0.05415859
0.002015759
-0.05424961
0.0009717854
-0.0543159
0.0003879151
-0.05410149
-0.0004195187
-0.05400293
-0.0005103584
-0.05341282
-0.002175649
-0.0528434
-0.002412301
-0.05220359
-0.002670769
-0.05140184
-0.003208579
-0.05069512
-0.003114706
-0.04974984
-0.003893237
-0.04877826
-0.004181214
-0.04761879
-0.004899642
-0.04639957
-0.005139805
-0.04519818
-0.005176182
-0.04382765
-0.005842924
-0.04240605
-0.006059675
-0.04099468
-0.006049835
-0.03940712
-0.006834812
-0.03774924
-0.00708953
-0.03603594
-0.007356224
-0.03428905
-0.007438388
-0.03255043
-0.007573782
-0.03059527
-0.008298688
-0.02873978
-0.008055058
-0.0267231
-0.008607968
-0.02468425
-0.008785136
-0.02263617
-0.00882968
-0.02055205
-0.008893655
-0.01841962
-0.0092499
-0.01628141
-0.009267351
-0.0141021
-0.009381106
-0.01192486
-0.009481748
-0.009665829
-0.009581727
-0.007538229
-0.009286465
-0.005243438
-0.009830735
-0.002960738
-0.0096064
-0.0007493502
-0.009226689
0.00142577
-0.009124435
0.003819712
-0.01034898
0.006182142
-0.01021889
0.008436154
-0.009931882
0.01065455
-0.00968984
0.0128523
-0.00950431
0.01504353
-0.009483551
0.01717623
-0.00920625
0.0193922
-0.009421298
0.02148954
-0.009067795
0.02350308
-0.008654967
0.02555204
-0.00875598
0.02754622
-0.008557577
0.02947561
-0.008273076
0.03141057
-0.00827323
0.03328338
-0.008050951
0.03499568
-0.007371091
0.03672262
-0.007386299
0.03837293
-0.007137577
0.03993388
-0.006654282
0.04150838
-0.006705463
0.04290015
-0.0059802
0.04425701
-0.005743576
0.04546821
-0.005217471
0.04657926
-0.00471427
0.04770884
-0.004740893
0.04868457
-0.004205971
0.04960883
-0.003818395
0.05036329
-0.003231286
0.05104248
-0.002789539
0.05165437
-0.002458286
0.05205744
-0.001664552
0.05247575
-0.001575097
0.05274584
-0.0009413537
0.05269595
0.0004404675
0.05246827
0.001445012
0.05210202
0.00237699
0.05164478
0.003756812
0.05113535
0.006381232
0.05092166
0.01001856
0.05151942
0.01499038
0.05226109
0.0172797
0.05103155
0.01246315
0.04759856
0.006322513
0.04464373
0.006665612
0.03969207
0.02405173
0.02732877
0.05575818
0.01502604
0.07055852
0.007507989
0.0458924
0.007238609
0.0009931854
0.01067736
-0.02571547
0.01389809
-0.02898535
0.01527764
-0.01873144
0.01467928
-0.008482407
0.01225426
-0.006331834
0.008593057
-0.007057306
0.005780663
-0.001041683
0.003986917
0.008411768
-0.0007331945
0.02520589
-0.007909386
0.03419725
-0.01372645
0.02629598
-0.01697076
0.01312015
-0.01695746
-0.002951798
-0.01170999
-0.02292072
-0.004313374
-0.02968181
0.002029218
-0.02339963
0.008809524
-0.02594971
0.0133285
-0.01732936
0.01523287
-0.006109355
0.01435302
0.005455925
0.01121646
0.01422988
0.007235548
0.01779938
0.00574384
0.007747345
0.007254623
-0.007732463
0.008901501
-0.01097183
0.01025973
-0.008854253
0.01170661
-0.007223661
0.01333871
-0.006810161
-0.005730675
0.01955022
-0.0179555
-0.006463858
0.02052522
-0.004284976
0.02067435
-0.0009566153
0.02012775
0.002481308
0.01864287
0.006631928
0.01653055
0.0109157
0.01396042
0.01550403
0.01138837
0.01901648
0.008023031
0.01933264
0.003523957
0.01590447
-0.001492544
0.01315566
-0.00395569
0.007557431
-0.001794734
-0.006806749
0.000739261
-0.01634136
0.003230749
-0.02107141
0.008137544
-0.02724454
0.01332233
-0.02640816
0.01698593
-0.01932825
0.01696881
-0.002912777
0.01028877
0.02430275
0.002856563
0.03812102
-0.005923396
0.05691272
-0.02016835
0.06322437
-0.0356437
0.03943571
-0.04549412
0.02408641
-0.05024602
0.01476951
-0.05383063
0.01251184
-0.05645314
0.01089405
-0.05898753
0.005460556
-0.06194966
-0.003628491
-0.06605888
-0.008584602
-0.07034221
-0.0004639652
-0.07116712
0.02083248
-0.0666493
0.03155972
-0.06291533
0.02318422
-0.06354948
0.01426557
-0.06432991
0.01187094
-0.06441672
0.009187996
-0.06457018
0.006240642
-0.06491121
0.004107878
-0.06510679
0.002211336
-0.06512378
0.0009887766
-0.06522183
0.0004859574
-0.06489081
-0.000750535
-0.06474892
-0.0006522482
-0.06410378
-0.002820785
-0.06338005
-0.003136038
-0.06268063
-0.003370186
-0.06162057
-0.004268633
-0.06082425
-0.003911033
-0.05967509
-0.005042396
-0.05854046
-0.005315843
-0.05712745
-0.006312654
-0.0556347
-0.006632549
-0.05421953
-0.006591352
-0.05260821
-0.007454245
-0.05083825
-0.007829638
-0.04915389
-0.007734195
-0.04727884
-0.00870986
-0.04531101
-0.009057365
-0.0432189
-0.009448328
-0.04110353
-0.009553765
-0.0391173
-0.00956001
-0.0366842
-0.01073179
-0.03451196
-0.0102273
-0.03201663
-0.01110329
-0.02963282
-0.01116895
-0.02717665
-0.01128585
-0.02463427
-0.01143604
-0.02212012
-0.01176404
-0.01952857
-0.0118589
-0.01690301
-0.01200666
-0.01434957
-0.0120352
-0.01158956
-0.01234173
-0.009123403
-0.01175262
-0.00632563
-0.01262851
-0.003569718
-0.01236231
-0.0008713261
-0.01192508
0.001796896
-0.01179266
0.004686878
-0.01323897
0.007401192
-0.0129332
0.01004248
-0.01257317
0.01273882
-0.01238618
0.01542301
-0.0121885
0.01806321
-0.01212375
0.02059199
-0.01173503
0.02331902
-0.01214833
0.02581277
-0.01156155
0.02823666
-0.01107885
0.03067861
-0.01119793
0.03307872