/*--------------------------------*- C++ -*----------------------------------*\
| =========                 |                                                 |
| \\      /  F ield         | OpenFOAM: The Open Source CFD Toolbox           |
|  \\    /   O peration     | Version:  2406                                  |
|   \\  /    A nd           | Website:  www.openfoam.com                      |
|    \\/     M anipulation  |                                                 |
\*---------------------------------------------------------------------------*/
FoamFile
{
    version     2.0;
    format      ascii;
    arch        "LSB;label=32;scalar=64";
    class       volScalarField;
    location    "0.26";
    object      p;
}
// * * * * * * * * * * * * * * * * * * * * * * * * * * * * * * * * * * * * * //

dimensions      [0 2 -2 0 0 0 0];

internalField   nonuniform List<scalar> 
15536
(
-23.77919
-23.11363
-22.98496
-23.46005
-24.18117
-24.96015
-25.67391
-26.25324
-27.28566
-28.14797
-27.80107
-28.50595
-31.03173
-32.94307
-31.37186
-26.09952
-18.51847
-9.83621
0.8229297
6.674883
7.932025
7.051196
-0.7278597
-10.41927
-19.94212
-36.97517
-76.14552
-127.414
-146.5915
-92.16744
-31.64128
-39.53371
-67.87428
-100.1749
-120.1041
-113.5504
-99.99476
-99.34171
-104.7735
-110.9104
-115.5085
-118.3689
-119.5634
-119.5457
-118.8653
-117.2626
-114.8328
-111.4503
-107.634
-103.5141
-98.72356
-93.36576
-87.3878
-81.0513
-74.29914
-67.20438
-60.11536
-52.94029
-45.42505
-37.75882
-30.24191
-22.88621
-15.57745
-8.372856
-1.412174
5.403365
11.90298
18.05829
23.76143
29.01699
33.7853
38.07224
41.8387
45.00693
47.54458
49.5599
50.92493
51.68542
51.91756
51.64551
50.5634
48.83618
46.54389
43.67425
40.25143
36.30025
31.88646
26.93185
21.59203
15.91506
9.757158
3.296474
-3.394741
-10.48906
-17.73942
-24.93717
-32.28835
-39.78525
-47.25236
-54.76328
-62.16543
-69.27844
-76.05431
-82.57766
-88.96936
-94.92812
-100.4241
-105.4112
-109.9046
-113.9686
-117.3221
-119.8872
-121.7137
-122.7754
-122.9538
-121.9406
-119.4799
-115.1943
-109.3407
-104.0052
-104.4926
-117.9125
-125.8775
-107.2108
-75.13882
-46.71072
-33.26644
-85.49904
-143.9251
-136.9557
-88.52146
-48.88476
-29.01013
-18.33283
-8.163589
0.4118448
0.6839641
-2.49318
-6.869101
-16.88425
-26.72925
-32.79052
-35.46918
-35.2461
-35.39897
-36.46581
-36.6946
-36.37411
-36.32946
-36.20502
-35.65415
-34.60788
-33.11689
-31.27736
-29.14815
-26.94961
-25.10623
-23.77854
-23.1122
-22.98225
-23.4557
-24.17382
-24.95263
-25.67154
-26.25526
-27.28564
-28.16073
-27.83009
-28.53206
-31.05555
-32.97134
-31.39151
-26.12306
-18.54554
-9.834136
0.8520256
6.74933
8.024139
7.041854
-0.7858978
-10.4479
-19.89474
-36.85951
-75.99213
-127.3166
-146.8714
-92.25714
-31.5057
-39.74711
-68.07246
-100.3954
-120.1508
-113.4117
-99.96802
-99.21879
-104.2759
-110.0494
-114.333
-116.9989
-118.0934
-118.0159
-117.3059
-115.6898
-113.265
-109.8961
-106.0996
-102.0157
-97.26449
-91.95436
-86.02679
-79.74745
-73.06015
-66.03198
-59.01015
-51.90733
-44.4697
-36.87682
-29.43375
-22.15269
-14.91739
-7.782359
-0.8886464
5.857739
12.29003
18.38388
24.03068
29.23306
33.95382
38.19879
41.92842
45.06758
47.58052
49.57747
50.93066
51.68433
51.91388
51.64268
50.56739
48.85598
46.58467
43.74111
40.34993
36.43612
32.06442
27.15722
21.87149
16.24878
10.15015
3.756123
-2.869963
-9.899975
-17.0792
-24.20504
-31.48585
-38.90892
-46.30248
-53.74085
-61.07206
-68.11445
-74.82329
-81.28747
-87.6236
-93.52775
-98.97724
-103.921
-108.3784
-112.4158
-115.7474
-118.3044
-120.1404
-121.2257
-121.4491
-120.5191
-118.235
-114.2728
-108.7862
-103.8483
-104.4703
-117.7734
-125.9228
-107.4416
-75.32884
-46.88917
-33.20219
-85.58203
-144.2074
-136.8069
-88.34632
-48.75945
-28.95323
-18.35546
-8.231121
0.3857158
0.7418078
-2.389661
-6.784376
-16.86473
-26.7268
-32.80739
-35.48745
-35.25492
-35.41595
-36.47933
-36.69756
-36.37573
-36.32238
-36.19011
-35.6314
-34.5871
-33.10146
-31.2661
-29.14129
-26.9461
-25.10433
-23.77658
-23.10894
-22.97688
-23.45058
-24.16646
-24.9465
-25.67528
-26.27846
-27.28944
-28.15238
-27.84676
-28.53051
-31.12537
-33.10486
-31.47373
-26.18934
-18.61608
-9.895309
0.7996083
6.770309
8.039039
6.968537
-0.9173157
-10.51332
-19.85082
-36.7826
-76.13023
-127.834
-148.3866
-93.2867
-31.22289
-39.58997
-68.1278
-100.2538
-120.1958
-113.5399
-100.0603
-99.04827
-103.6843
-109.0896
-113.2355
-115.9412
-117.1222
-117.0684
-116.3958
-114.8075
-112.4168
-109.0651
-105.2832
-101.2297
-96.49351
-91.21203
-85.30958
-79.06615
-72.42018
-65.40916
-58.41767
-51.35932
-43.94958
-36.38897
-28.97993
-21.74004
-14.54452
-7.440709
-0.5901658
6.126054
12.52295
18.5841
24.19967
29.37309
34.06464
38.28328
41.98928
45.11065
47.60339
49.5871
50.93112
51.67822
51.90447
51.6335
50.56463
48.86694
46.61117
43.78588
40.41662
36.52696
32.18285
27.29988
22.04523
16.45519
10.38454
4.025526
-2.563627
-9.562743
-16.70615
-23.78944
-31.03679
-38.42719
-45.77816
-53.19273
-60.49014
-67.50347
-74.18463
-80.60831
-86.91824
-92.78557
-98.21144
-103.1305
-107.565
-111.5882
-114.8962
-117.427
-119.2334
-120.2934
-120.4874
-119.5006
-117.1472
-113.2885
-108.1672
-103.661
-104.5327
-117.8977
-125.9133
-107.2694
-75.37179
-46.74786
-32.78973
-86.53329
-145.701
-137.4268
-88.49045
-48.69035
-28.90312
-18.40703
-8.371688
0.279639
0.7439037
-2.32422
-6.709349
-16.89509
-26.77039
-32.86299
-35.56196
-35.28761
-35.41818
-36.46474
-36.67325
-36.38283
-36.32501
-36.18066
-35.62515
-34.58064
-33.09611
-31.26204
-29.13837
-26.94269
-25.10129
-23.77224
-23.10277
-22.96746
-23.44378
-24.15614
-24.93696
-25.6797
-26.30953
-27.26789
-28.08479
-27.82838
-28.47839
-31.21729
-33.3474
-31.62612
-26.31989
-18.75638
-10.04237
0.6167541
6.68773
8.085535
6.863164
-1.068778
-10.55676
-19.80529
-36.75563
-76.52513
-128.8387
-150.8566
-95.33625
-31.22741
-39.02053
-67.71376
-98.80933
-117.8687
-112.2611
-99.94965
-98.78099
-102.8408
-107.7618
-111.6278
-114.151
-115.1745
-115.0429
-114.3692
-112.7772
-110.438
-107.121
-103.3676
-99.37823
-94.72142
-89.52376
-83.70094
-77.53802
-70.9831
-64.06378
-57.15689
-50.19402
-42.89182
-35.41479
-28.09069
-20.94252
-13.83716
-6.811455
-0.04737857
6.594647
12.91794
18.91657
24.46944
29.58492
34.22551
38.40085
42.06904
45.16334
47.62628
49.59272
50.92535
51.66446
51.88657
51.61456
50.55164
48.87314
46.63916
43.83992
40.5039
36.65377
32.35756
27.51945
22.32606
16.79717
10.7857
4.505508
-2.009788
-8.943612
-15.99501
-22.99036
-30.15994
-37.45778
-44.71707
-52.04435
-59.25212
-66.16706
-72.75074
-79.09916
-85.3317
-91.1101
-96.46358
-101.3037
-105.6774
-109.6519
-112.9173
-115.4068
-117.1918
-118.2615
-118.4951
-117.6293
-115.4966
-111.9032
-107.2761
-103.36
-104.3869
-116.6135
-123.4585
-105.6851
-74.91238
-46.21758
-32.7241
-88.35209
-148.0965
-138.5246
-88.91436
-48.66655
-28.85995
-18.43605
-8.530313
0.1261908
0.7600151
-2.300474
-6.671961
-16.99367
-26.87261
-32.96596
-35.69677
-35.35968
-35.41779
-36.41279
-36.61073
-36.38266
-36.32675
-36.16579
-35.60956
-34.5734
-33.09398
-31.26168
-29.13811
-26.93903
-25.09633
-23.76487
-23.09252
-22.95282
-23.43572
-24.14437
-24.92903
-25.68619
-26.33856
-27.21986
-27.96163
-27.77861
-28.37975
-31.31787
-33.6799
-31.87187
-26.54412
-18.99529
-10.31328
0.2600814
6.484681
8.167139
6.827519
-1.136135
-10.53301
-19.73298
-36.86817
-77.1218
-130.3646
-153.9666
-97.90623
-32.79448
-39.00509
-66.95932
-95.61108
-112.8325
-109.0492
-99.34903
-98.37885
-101.9159
-106.4452
-110.111
-112.6192
-113.7615
-113.6193
-112.9626
-111.3564
-109.0407
-105.7273
-101.9435
-98.0167
-93.3572
-88.20202
-82.39544
-76.28371
-69.7978
-62.90445
-56.05081
-49.17653
-41.94158
-34.51463
-27.25698
-20.19535
-13.16661
-6.19713
0.4827322
7.065614
13.32059
19.25692
24.74302
29.80523
34.3943
38.52407
42.14643
45.21083
47.64108
49.5876
50.90817
51.63817
51.85483
51.57848
50.52005
48.86964
46.66498
43.89555
40.59555
36.7853
32.53901
27.74426
22.61876
17.14708
11.1806
4.985442
-1.455561
-8.351881
-15.32356
-22.23187
-29.34533
-36.57879
-43.75077
-51.02959
-58.1803
-65.03366
-71.56186
-77.85185
-84.05522
-89.77814
-95.1101
-99.91637
-104.2646
-108.2629
-111.4844
-113.9835
-115.784
-116.8629
-117.0913
-116.1341
-113.9838
-110.5442
-106.3125
-102.916
-103.7796
-113.4627
-118.3118
-102.2635
-73.99015
-46.23072
-34.28908
-90.74619
-151.0449
-140.1293
-89.61091
-48.76295
-28.7562
-18.41615
-8.605742
0.04432784
0.8742919
-2.318686
-6.690495
-17.20463
-27.07103
-33.13779
-35.89848
-35.48911
-35.43772
-36.35609
-36.54053
-36.37414
-36.32822
-36.16016
-35.60585
-34.5755
-33.10031
-31.26781
-29.14276
-26.93724
-25.08979
-23.75392
-23.07619
-22.93071
-23.42571
-24.13026
-24.92121
-25.69384
-26.36424
-27.17002
-27.84615
-27.72701
-28.29609
-31.46445
-34.10668
-32.2493
-26.90583
-19.37337
-10.77365
-0.3730635
6.221386
8.500461
7.0316
-0.9867669
-10.39242
-19.75638
-37.08754
-77.81218
-132.1398
-157.0302
-100.8797
-37.21213
-40.81732
-66.95201
-92.32129
-107.5401
-105.3614
-98.27049
-97.60385
-100.6014
-104.6401
-107.9571
-110.2684
-111.264
-110.8979
-110.2738
-108.7516
-106.566
-103.3018
-99.55457
-95.78353
-91.21063
-86.18611
-80.47227
-74.45287
-68.08054
-61.27153
-54.53582
-47.79713
-40.66045
-33.32373
-26.18433
-19.23224
-12.30996
-5.420727
1.138529
7.645162
13.80306
19.64361
25.05615
30.06483
34.58898
38.65974
42.21851
45.25598
47.64542
49.56326
50.87333
51.59212
51.80075
51.51755
50.46745
48.84726
46.68234
43.95126
40.6954
36.93461
32.74266
27.99252
22.96536
17.57387
11.64322
5.549843
-0.7584631
-7.59935
-14.47839
-21.25289
-28.26552
-35.41292
-42.46876
-49.64473
-56.69222
-63.43733
-69.84127
-76.02937
-82.16179
-87.75465
-93.00434
-97.69758
-101.9567
-105.8731
-109.0106
-111.4091
-113.0645
-114.1631
-114.4727
-113.7131
-111.7889
-108.6501
-104.9402
-102.0851
-102.6983
-109.8631
-112.9349
-98.76057
-73.69179
-47.88992
-38.43297
-94.03122
-153.8721
-141.8809
-90.45911
-48.98789
-28.6217
-18.27627
-8.452232
0.223941
1.300442
-2.287483
-6.799389
-17.59825
-27.39637
-33.40448
-36.18599
-35.68587
-35.5054
-36.32117
-36.47809
-36.36364
-36.32886
-36.15842
-35.61286
-34.59146
-33.11818
-31.28228
-29.15835
-26.94231
-25.08072
-23.7386
-23.05458
-22.9023
-23.41795
-24.11516
-24.91409
-25.70309
-26.38898
-27.12822
-27.73906
-27.69608
-28.28208
-31.6682
-34.60529
-32.78602
-27.48141
-20.02217
-11.55751
-1.349268
5.929435
9.116403
7.607341
-0.5152105
-10.07738
-19.98955
-37.35097
-78.88293
-133.4091
-158.5221
-104.7227
-43.99424
-44.60168
-67.25148
-89.0818
-102.5952
-101.8622
-96.94288
-96.62427
-99.19648
-102.8314
-105.8705
-108.0878
-109.1795
-108.8138
-108.3308
-106.5183
-104.366
-101.098
-97.28413
-93.63327
-89.05064
-84.155
-78.46689
-72.4695
-66.24158
-59.56537
-52.90047
-46.22925
-39.24424
-32.05105
-24.9986
-18.0967
-11.36594
-4.551124
1.861576
8.293567
14.31622
20.06255
25.46573
30.36097
34.78676
38.77643
42.27516
45.3358
47.63658
49.51837
50.81728
51.51868
51.71811
51.43986
50.40666
48.77767
46.64594
43.96652
40.77114
37.09688
32.97837
28.25091
23.3289
18.06982
12.2187
6.164876
-0.03662494
-6.715051
-13.51838
-20.19399
-27.08203
-34.05837
-41.07595
-48.16936
-55.05106
-61.72768
-67.98968
-74.08339
-80.18554
-85.65052
-90.8773
-95.46385
-99.70644
-103.6785
-106.7435
-109.1802
-111.0521
-112.1497
-112.4043
-111.5493
-109.6991
-106.7637
-103.5133
-101.0604
-101.3577
-106.4324
-107.8999
-95.33868
-73.5104
-51.12251
-44.92554
-97.9767
-155.1391
-143.0616
-91.36181
-49.49993
-28.69484
-17.93825
-7.937241
0.7323718
2.240399
-2.076372
-7.107169
-18.26134
-27.92824
-33.79774
-36.57214
-35.9409
-35.6405
-36.30278
-36.42442
-36.35355
-36.33331
-36.16999
-35.63864
-34.62651
-33.14992
-31.31181
-29.19824
-26.94815
-25.06245
-23.70682
-23.02476
-22.87513
-23.41665
-24.10982
-24.91509
-25.72028
-26.41451
-27.09231
-27.64167
-27.69467
-28.39153
-31.92496
-35.17942
-33.46491
-28.36872
-21.29364
-13.04954
-2.88158
5.542547
10.00387
8.675486
0.3345853
-9.472627
-20.53522
-37.16533
-79.70087
-131.6824
-156.5843
-107.227
-51.69249
-49.6647
-67.55734
-85.67165
-97.6556
-98.30354
-95.21244
-95.11709
-97.17895
-100.3659
-102.9954
-104.9247
-106.1529
-105.2238
-104.7376
-103.2758
-101.2482
-98.24826
-94.16452
-90.74633
-86.31495
-81.62343
-75.90137
-69.99483
-64.16614
-57.67052
-50.74086
-44.26872
-37.71576
-30.70018
-23.45673
-16.69549
-10.40104
-3.553324
2.626045
9.029921
14.79563
20.6411
26.038
30.65408
34.95183
38.83269
42.32246
45.42621
47.56701
49.46397
50.73152
51.4104
51.61287
51.35313
50.29743
48.66413
46.53122
43.91536
40.78953
37.22003
33.28299
28.5413
23.69341
18.59795
13.05181
7.042683
0.6038036
-5.770596
-12.23854
-19.04302
-25.85669
-32.38343
-39.25776
-46.6332
-53.05823
-59.74023
-65.82338
-71.73218
-77.83109
-83.03284
-88.29883
-92.62288
-96.72033
-100.7383
-103.6331
-105.9565
-107.4737
-108.6186
-109.0861
-108.3675
-106.7561
-104.1105
-101.4773
-99.49153
-99.56993
-102.9002
-102.8132
-91.7838
-73.32028
-55.34221
-52.42733
-100.8108
-152.7908
-140.8537
-90.54071
-49.92794
-29.31235
-17.73207
-6.969303
1.626979
3.72717
-1.627789
-7.792753
-19.24388
-28.77191
-34.35317
-37.08282
-36.25108
-35.8194
-36.28975
-36.38521
-36.34439
-36.3463
-36.20253
-35.69057
-34.68896
-33.21203
-31.39382
-29.27268
-26.90979
-25.03362
1.273803
0.1649647
-40.12461
-10.68632
10.27396
-9.883944
0.1207156
-0.7604706
8.498219
-1.77792
-2.932573
-0.1313029
-1.024739
-0.19111
-0.2768422
1.794193
0.08289944
-2.827091
-0.07358753
-1.002172
-38.3223
0.02638771
1.013669
-1.907394
-0.01902721
0.08365464
-0.8548879
-1.400708
-6.28414
-0.05661299
-0.2676585
-23.25709
0.05958143
0.005783092
0.004049678
-4.288779
0.007838766
0.07660506
-0.005984309
-5.192025
-19.59195
1.548278
0.498628
3.35706
30.95146
-0.04271574
-0.04724278
0.07058342
0.1734357
-1.548153
0.04227635
0.03826913
1.285478
0.007433365
-0.0002824081
19.7852
-2.254725
0.04379914
-11.63546
-17.10117
-1.332256
0.008397432
13.3241
-0.1314974
0.4841718
0.1288068
-35.03358
-0.01381946
0.01361787
0.005632055
-0.7247212
-0.02634799
-0.1003041
-52.77617
22.07522
-0.09799613
3.533609
-2.292414
0.0001425035
-0.1452462
-17.3622
-0.02746026
2.384943
0.008797525
-8.674485
0.06689722
0.07657137
-0.9517428
17.23391
0.03129262
-14.288
23.6035
0.03993142
-0.005606624
0.03904731
0.1000416
4.609852
5.570286
-56.59834
0.0878676
-0.6486609
-0.9734641
0.003770671
-82.81691
0.0002644226
-20.01353
0.01898261
-0.1000849
-5.882268
4.66971
-0.6516855
1.14858
2.438261
6.9807
-25.1267
0.002198214
-0.01118475
-0.03951258
22.20052
-0.1832501
0.4506497
-0.1718134
-0.6509909
0.01349783
0.0225272
3.745357
-0.5477652
-38.19477
0.2285173
0.0694069
0.005003239
0.0385748
0.007728656
-0.3119549
0.08799463
-30.21824
-0.07293619
4.631428
-0.5380413
-0.008714727
-40.60709
0.09600328
-61.03229
0.8073605
0.0182318
0.04382663
-1.477009
-40.00511
-0.01876636
-0.6992248
0.1037938
-21.77229
-25.83473
0.02583501
0.68511
-65.52471
-0.0848462
-0.01088062
-0.03334164
-29.04572
-0.009650109
-32.92121
2.070282
-1.846496
0.2345899
8.151684
-20.18055
1.263369
-36.02196
0.0006271039
0.07971722
-8.001608
0.8732226
-45.39034
-6.13397
3.066243
1.182214
0.01161756
-46.82743
0.009050324
14.77588
-0.357142
-0.03613054
-0.1740749
3.841376
-43.34908
0.06382828
0.03977714
0.9547117
-0.2740997
-0.4609894
-0.5948304
-6.752649
-2.274114
0.01324665
-0.1223625
0.003253526
0.3444763
-2.815137
-31.08189
-1.204971
0.06322289
1.005554
-9.073214
0.2362138
-2.647097
-6.552394
0.03175696
-8.155886
-0.003699865
-0.07250269
0.02138402
0.5048379
0.4483453
0.003434589
-9.569412
-10.45709
-0.8124492
7.306827
-0.1610534
0.1399694
0.230102
1.990749
0.05233686
-3.110411
-2.851726
0.03772645
7.488853
-0.001001353
17.19227
-5.676814
-54.14007
1.779606
0.001571724
-67.77487
-0.1138973
24.04596
0.06437378
1.965683
0.1571573
-0.352661
-0.311373
0.01595432
-12.8396
-0.4021916
8.704058
-0.01491663
-48.69388
-0.01371881
0.5467526
-30.0172
0.59242
-1.052273
-0.9243961
2.172235
-24.45042
0.8163244
0.09218593
20.97197
-4.245293
-7.024043
-0.01248497
0.1727693
0.01199439
-0.5059881
1.209905
-0.1090403
-0.04366557
-2.59714
-24.02682
0.004702849
-0.05713974
12.01913
-1.166899
0.02483752
2.4198
0.7570267
-30.14618
-98.60009
-0.356097
0.00612376
0.4905073
0.03377298
-0.08897329
0.0887956
0.006647896
37.11379
-0.579254
0.8556444
0.0148354
-0.02995334
-0.002689276
-0.03718665
0.01651294
-43.36505
0.01551342
-5.637074
-0.02724735
0.4150191
0.001092517
-39.69222
-0.002161309
0.01792648
-31.38565
-0.2165005
0.007824797
0.007075796
-0.02595626
0.1004043
0.06953579
0.9626918
-1.239959
0.005187027
0.1041312
-0.3135036
-11.27848
34.33175
-54.37893
-27.61272
-77.04485
-0.5234634
-0.003672128
-1.313223
0.01362352
0.01769799
0.03035267
-0.01313594
-0.03444066
-0.0809886
2.240901
18.4105
0.05197533
-6.967607
-26.92979
0.03280163
0.6585307
0.002764851
0.00516949
-2.637967
0.008958024
-52.25148
1.810704
0.753881
-1.436434
-12.1499
4.201498
5.936995
-0.5695205
-10.06445
0.0008966397
0.00937466
0.007383552
12.34139
0.04887489
0.1470631
-42.78376
-49.72912
0.01942121
-0.06914486
0.1847998
0.04011775
0.09390159
0.02041209
1.224975
-0.9239693
0.7501834
0.4644959
0.02885447
-0.3793438
0.04438512
-2.647435
11.52907
-35.39412
-0.07107305
0.9489286
0.8748228
0.03343704
0.1767197
0.6560159
-0.3040713
0.06930829
0.2452491
-0.0006617715
-15.81554
0.0001073218
0.02703805
0.07654224
39.02696
1.254238
0.004822795
0.05898885
-0.2755285
2.106675
-65.72854
0.008403301
-1.107703
0.7727652
0.5535851
-0.01093891
-0.0739683
1.016871
-1.157906
-26.83468
0.01066479
0.01773978
0.05298698
-41.80217
-47.76905
0.6570024
0.4532916
-0.03649324
0.05676476
0.0399763
-0.4935728
0.3677768
-0.8724699
2.030135
0.6483344
-0.02503038
12.56671
-1.221057
0.05251768
2.965793
0.003577806
-0.5452715
-24.32602
0.006556578
-0.2314752
-36.44859
0.0617482
12.0927
0.03893557
0.02042925
-0.0330991
0.2491405
0.3253527
-0.003632239
-5.252108
-0.06727421
-0.9753318
0.005580198
0.02075004
0.8537076
-0.1365138
-3.958874
-0.05255155
0.02093583
0.0146762
0.02617393
-0.5786081
-0.8728397
-94.33299
0.6322895
-11.6745
-0.01577806
0.003956116
0.03285228
3.891386
-0.02344399
-17.84591
-0.05917616
-42.89716
-1.419746
-0.0174222
0.365546
-0.009080233
27.39398
-0.1539917
2.489353
-1.627605
-9.713027
-1.479753
-0.06866186
6.975857
0.004958417
-11.9202
0.164294
-39.79464
0.01206711
-0.2257435
1.954134
0.1583823
-0.03218376
-0.1127588
0.1247116
-0.02893047
0.01150675
15.72147
-0.01757011
0.3911195
0.005610225
-22.36363
-2.882351
0.006533042
-17.82024
-0.3776532
0.005138622
3.340788
0.00982765
2.951515
-0.323887
-0.1150205
-0.01238156
-4.469057
1.369276
-0.04995113
-0.7512503
0.3028738
0.157652
0.03361024
-22.15164
1.610676
12.07699
-1.645072
0.2274772
-0.01813582
0.3255654
0.009859738
-0.003575885
-0.0397802
-0.3201147
-0.08051883
-5.046448
0.01995131
0.0155677
-0.9903945
-0.3089065
2.165353
0.01853059
-0.007627111
-24.46683
-3.567069
-23.00882
0.02385248
3.407234
3.977955
2.823703
-0.02290008
0.03919733
-0.002004789
4.170449
-0.02917286
0.3759421
0.5278686
-56.11286
1.620464
3.349628
0.008818612
0.02059412
7.827785
-0.02979427
8.080879
0.04499441
-3.428989
3.945008
0.02283604
-0.7285021
5.947619
15.30146
-8.527625
-0.008306061
0.1806357
0.04194806
0.0980948
-0.002945402
0.01730902
-0.06334108
5.16397
29.4245
0.01581548
-0.09435784
3.033344
1.15173
-58.33722
-0.00880727
1.955162
0.0429947
1.671833
-0.02946619
0.02525534
0.7362919
0.01928333
5.018365
0.07713608
1.236557
-20.65565
0.4224441
0.0001008075
-75.44056
-3.498213
-1.303232
-22.10966
0.144851
0.008226573
0.001400862
-0.0008912002
-0.3588472
-61.1025
0.03438006
0.01129605
-0.06969174
1.518059
0.01443939
-0.003671071
0.5823859
-20.05503
-10.34563
-0.09297216
-23.44924
0.0950363
4.397125
0.003981897
-42.07186
0.03734182
7.906294
-7.144898
-0.6779293
-1.921953
4.572808
2.918651
3.835181
0.0003597316
-0.433509
0.009355792
0.05496416
17.42947
2.035078
-0.04293525
0.02009659
-2.455231
2.30391
6.436228
-13.1209
0.7567871
-31.3008
-7.320617
-8.486278
-0.7885076
-0.5870921
0.05067292
-0.07522695
0.006842944
0.02337872
0.6598241
-0.006785914
0.7881416
0.01379538
-17.83359
0.06619609
25.16324
3.251939
-35.66066
-0.001991262
2.47548
6.44789
-2.640253
-24.31314
-0.01856328
0.03327719
-20.09677
-1.254214
-0.8548605
0.2191606
0.2439462
-0.01697316
0.09254114
0.313629
0.889008
1.122425
-4.656563
-0.0135209
-0.01104722
-78.90045
0.04732452
-0.06220806
2.241006
11.23189
0.01227302
-0.0008184152
7.529908
14.03833
11.8788
1.336522
0.1832139
0.01950236
0.01715851
-0.04342489
-2.320482
1.999081
0.02288121
-24.7034
-0.007982217
-35.78644
0.01129568
0.01167659
0.07873259
-28.17435
1.337151
-0.6762315
-1.355425
0.09876165
-8.299407
-3.233096
-5.413254
3.728416
10.47778
0.7361462
-0.131618
-23.53674
0.2294637
0.7958195
0.4610687
0.3224821
-0.08367601
-4.811235
-0.4953401
0.07528412
-36.42742
0.01046389
0.009349533
0.2603157
0.04584444
-0.5275932
-0.05225469
0.00640183
-1.00562
-0.1221221
-24.26126
0.02439801
-0.04887765
-0.5971044
-0.6441941
-0.2201
-0.08655202
0.01680875
1.452771
0.04187831
2.806596
-37.51675
-0.6652347
-0.001935093
0.01268054
-0.005707329
-0.2141254
3.477088
0.005889194
-48.79656
1.644731
3.263764
6.934238
0.0009886509
-16.07778
-6.914713
0.1896517
-0.002344659
-16.2638
0.6241786
-11.2823
-18.62914
-4.723015
-3.887172
-2.151292
0.8613107
13.26512
1.432527
0.3512997
-10.36846
0.1322918
-0.448116
-0.1474739
-8.06899
22.24744
-7.255156
0.06879109
1.17483
-0.5827542
-0.04481755
0.004049052
-4.442951
0.07003443
0.3240253
-0.9862248
0.003857051
-2.383064
5.577381
-0.1572278
0.03605587
-0.002305146
0.2031069
-0.3671559
-1.044971
4.174833
30.7439
0.008709823
0.004362765
-0.2135932
-0.06929082
0.00302357
0.03162953
-27.45068
-0.2222415
-80.08368
-8.694439
-0.9204572
0.002727464
-0.001574423
-7.435996
0.6632635
0.01240481
0.01261194
0.03929235
-9.33594
-57.15941
-0.06783398
-1.087926
-1.567892
-0.008968095
-1.104456
1.104635
1.070807
-3.35845
14.24813
-0.4012053
-0.14477
-0.6443742
-0.631628
1.527919
-1.557987
0.01089183
-1.188354
0.5897707
-0.07390495
8.113801
-30.42524
0.02100571
0.02237942
-13.10682
-0.487341
-0.1614019
-0.02705097
-2.621283
-1.524612
0.03117728
1.910443
0.6400522
1.183986
2.866037
-0.9840001
0.01581658
31.4223
-0.1548246
-2.491734
-0.007324631
-70.10386
0.02218105
-0.01723079
1.009785
-0.6263681
33.4138
-0.7898434
-0.01800739
0.3765229
-0.08696289
0.006025395
-0.4233953
-0.08035979
-0.08859431
-22.35004
-14.24601
-0.04374695
-2.979368
-42.78377
0.01129841
0.01362149
-0.003730112
-11.46016
4.390398
30.63002
0.0106085
-0.5066359
-0.6675262
0.01881139
0.01600209
9.017226
-1.608928
-0.1169868
0.008880353
-0.8528966
-0.6169026
0.0006830852
0.01253537
-7.971059
0.4116048
-28.50897
2.144984
5.758038
0.00250927
0.2480542
0.05037589
2.270486
-11.32088
0.01016224
0.03325401
10.33181
-19.16789
4.563449
0.04220708
-0.1445087
-11.84446
26.44583
0.3266529
0.001454383
-4.355891
-25.2961
0.01126059
-0.000540642
2.03771
0.5364411
0.5193372
-28.14682
-4.423812
1.497028
0.05761685
0.05740388
0.00648293
-29.8978
-21.15328
-52.09502
2.025167
-40.78726
0.555109
-0.9567848
-18.60307
-0.145139
-1.241886
-29.2698
-0.005379983
0.02349427
0.1236661
0.7360824
0.01075137
-26.26671
-36.32161
0.890057
15.53016
0.2012459
0.006872642
-21.69175
18.62042
-34.56318
0.1868873
-0.3798371
0.4869164
0.005412372
0.02352646
0.2240849
0.151375
-0.05536435
-1.344545
-57.28606
-66.35655
0.07089625
0.1296438
1.82853
-0.01401211
-0.6325163
2.040794
-0.09068658
-0.02075511
-0.4309123
-0.4143431
0.05320214
0.7810834
-0.06821331
-13.74156
0.6682603
-0.1223351
-33.9069
1.031997
-0.1984177
-2.722891
-27.35342
2.602392
-2.700252
0.6187727
-13.49584
-38.40372
33.9407
47.7078
1.573201
-1.005973
0.4076942
5.119165
0.878718
0.001616929
11.26756
-31.98362
1.289927
-0.06356637
-1.006284
1.457071
-0.07475121
1.960232
-0.7447121
-23.91407
-55.59461
0.2359456
0.5064182
0.01408002
1.523113
1.099907
-70.47062
0.002645501
-0.07048208
-0.145832
-1.096051
0.0312924
0.0268976
-37.22262
-22.86116
1.04937
0.1238281
-0.02271216
1.39299
0.01348239
1.167857
-0.01716969
30.82302
0.3518963
-77.09611
-15.80364
-0.09157157
-0.6891894
-73.05507
-61.82614
-0.5945766
0.2837593
0.1152953
-0.05891116
-1.265887
-7.205124
0.007429019
-0.07295978
-0.05979735
0.1068919
0.0230822
-1.723249
0.1954148
0.02835485
-0.721074
0.03284422
0.03015974
-0.9677567
-1.586641
0.005045655
-0.5493404
0.8040816
-1.047519
0.008700135
2.988138
-0.06003909
0.3914907
2.750985
0.02037524
0.04278097
-26.15775
-21.58133
0.007270066
-0.05349866
-0.006155906
-0.0123757
-27.99557
-10.94792
-18.51812
-30.6706
23.5605
-0.01109169
2.713622
0.1148012
-20.60685
-0.08855919
2.846255
20.86871
0.05680644
0.5672063
0.7687471
0.7633556
4.765939
-0.8160308
0.04451705
-10.51021
0.01762004
-28.17559
2.104437
5.461056
36.06351
-11.66034
-6.571258
-0.06875752
1.173197
0.1679794
7.598649
0.1461409
7.281303
-1.653905
0.0577843
-8.498301
0.05744215
-2.548232
-0.1343955
-20.59033
-0.4353273
-81.70153
7.581743
0.2270921
14.36183
-0.03024867
30.33962
0.02279
0.2762143
-0.004704043
-1.759574
14.99197
0.2296084
-0.760358
-0.01345914
0.01067549
-0.2149069
-0.2049609
0.7233037
-10.30272
1.688658
-0.002526936
-32.73306
0.1054879
18.65269
-16.31052
1.679235
21.9039
-16.11644
-4.230247
-26.07236
38.81913
0.7141172
-0.03253129
-37.35238
0.05623305
0.009950956
-2.255597
-0.3450841
-20.1749
-74.81412
0.4873661
0.4635669
0.6454791
0.2399434
-0.07433919
0.009391103
0.5093878
5.395691
2.456931
-0.05068911
-0.01453129
-0.01862037
0.04076446
0.3756878
0.008363451
-0.6413352
-0.5400047
-46.97057
-0.02127284
0.06931291
0.07155672
-0.3559423
-31.25196
1.119571
0.004027649
0.7203935
-0.00419126
0.0118549
0.08785648
-0.07144025
0.04806964
-63.04234
25.93315
-2.112883
0.03841694
2.521333
-1.761796
-0.1837499
-0.3622397
-0.007505138
-0.613157
0.0001243027
7.271984
-0.3679528
-15.18479
0.3338893
1.897221
1.144576
0.2892824
-1.343059
-0.5350417
0.8289512
1.292881
-25.96082
1.096557
0.0002136005
0.009971956
-1.259049
0.008337691
-0.3904798
-24.8726
0.3008988
-0.1493342
-0.0111454
-8.694302
-0.01980912
0.02685134
2.204791
-57.15312
0.007311204
-0.01508817
-0.007218258
-69.89703
0.02002453
-33.26532
-0.02027921
-0.0187483
-0.3902708
-0.5842462
1.785489
-30.78729
-31.70386
-0.002000134
0.03583205
8.24646
0.01056409
1.996839
1.585132
1.951048
-1.095243
-0.02350299
-0.1909153
-68.35853
0.06614601
0.04271593
-0.4387734
0.1157002
-1.470021
0.2605171
-0.01537516
-0.1864059
-10.85056
-0.7072201
-0.06167309
9.67525
0.2007286
-12.12218
-0.1085919
0.02344359
-1.754064
-25.09032
-0.8891181
-1.449332
0.1026502
-17.60861
-52.51276
-37.16552
-0.01982605
19.31679
0.2957908
-6.943208
-3.149932
-0.7115331
16.19329
0.2989535
-34.62513
-71.88995
0.0138213
0.02044398
-1.682832
0.01257644
0.02378176
0.009788924
0.1154849
0.01085867
0.007941187
-15.05382
-1.032762
0.007805222
0.2320673
0.5199654
-1.172465
-0.2385203
-0.006750807
-0.03248395
0.4653095
-16.56542
-1.053286
1.421587
-0.5283056
0.02552093
-28.38198
0.05185339
-3.79378
0.036916
0.03365244
0.01609286
-21.85467
-5.012362
1.254682
1.762565
0.02498766
11.02018
-53.99356
-17.4762
-0.9591198
-0.4888795
18.13512
-2.061114
-0.01731845
-0.155448
-2.44518
0.01127301
-46.16043
-29.52406
-18.51133
12.07917
8.777633
0.006642094
-48.7604
-45.07518
-68.58535
1.624683
-5.218363
-1.705296
0.2328981
-0.02472522
-0.00188183
-0.02799086
-0.005923831
-0.122729
0.08206232
-0.0594163
0.008594033
-25.92968
-0.02077105
-0.1569825
-0.4597901
9.598336
19.70423
0.002270862
17.08611
-34.4328
-11.47791
8.078847
-2.429757
-7.310051
-12.52617
-61.58618
0.0850487
-25.89256
0.5547284
-52.96475
-22.21747
-0.03585154
0.09220038
-6.825854
0.02482765
14.23497
-0.123787
-0.004074222
1.634919
-0.01944341
0.01810958
-0.003898813
-0.195394
-0.5428574
0.128431
-36.47205
0.006556948
-0.195875
0.07632106
0.00735212
-0.005638333
-17.21617
0.03552054
-43.48248
-1.085646
0.6988948
23.36653
0.01473619
0.5152807
-25.63069
-1.782374
-79.91873
0.1117453
0.01155548
-0.05762631
-0.08345785
0.2281945
0.008716615
0.1805554
0.8496532
0.04172855
0.004537573
-0.007041643
20.64099
2.007564
-17.67305
5.248227
0.3113438
-0.02244372
-76.87866
-0.02882257
-0.1101004
2.439645
1.528432
0.05603597
-53.19425
-51.98952
-45.58971
0.01538307
0.02579317
-30.49753
0.5763327
-19.238
-0.3074905
0.8412542
0.93301
-34.81333
0.1166709
-66.73937
0.08750812
-3.174595
-0.03231185
0.2751586
9.542769
-0.4122175
-0.9425856
0.08969142
-0.003599612
-1.208774
16.12648
-1.250268
8.434883
-0.1292752
0.05959634
-0.0101198
0.3885738
0.4169383
-0.8067861
0.0119786
-7.014297
0.3193538
-0.01136104
7.732077
0.03047746
-0.003985918
-6.127104
-4.352628
-0.1474586
-0.1627506
0.4177434
0.003842012
0.2584371
-69.18109
27.23456
-6.99454
0.003667181
0.01777712
-29.8897
-0.03070266
0.37124
0.1222108
0.2421572
-0.9549778
0.2318371
-0.7309718
-53.01777
-0.8603262
21.04892
34.46609
1.183505
0.5880694
0.6773672
0.2296155
0.6449859
-0.002179342
33.34942
-50.46076
0.007211271
1.528187
0.03203093
0.2858063
0.02113863
0.03657948
0.8113252
0.4218203
0.1640605
3.0811
-0.1285162
0.6471343
0.06254171
7.254232
-12.30756
-2.813506
0.07148541
-75.18574
28.6974
18.05962
0.01752274
-9.248839
-4.243716
-0.01594299
1.226635
32.49685
0.1579273
0.02769701
0.2957388
-0.9009159
0.003090257
2.825565
0.05388232
0.01570013
-0.008577223
-0.09264285
19.58072
0.02202288
0.2224892
0.1154909
0.06596943
0.07129153
19.90787
2.519115
7.129893
-82.4572
-23.24252
-0.01046629
-0.006496332
-22.8287
0.04203733
-36.27249
-1.718247
0.02124965
0.9295569
-0.5100127
0.354904
-13.46544
2.68384
0.1606122
-6.794935
-0.006441669
-0.06457231
-2.234539
-55.53856
-17.26749
-0.6201683
2.748378
-0.01076817
0.006418005
0.4233464
0.03882863
-0.2305062
-0.1621036
-79.83826
0.386391
-2.365863
-2.073621
0.5834233
0.7740185
1.200788
-9.683811
3.120699
1.643658
-0.2318284
36.3892
0.01026102
-0.1038898
-0.5347654
-0.3522773
5.653945
-24.90906
-38.50717
13.46157
0.9124492
-0.02120678
-0.1342192
-0.1225478
-0.00736011
0.3843591
-0.01162809
0.1121977
0.04586299
0.0721883
0.006437013
-0.2145624
11.93274
8.031118
0.0137973
0.0004122637
-1.675426
-1.43519
0.01037041
0.7569641
7.70097
-44.89089
-44.27194
-0.1649718
0.07345492
-72.47254
42.82599
-86.45896
0.7554445
0.9186828
3.859232
0.1155773
8.611261
-22.23414
-0.004308774
3.28397
-0.6091713
2.460846