/*--------------------------------*- C++ -*----------------------------------*\
| =========                 |                                                 |
| \\      /  F ield         | OpenFOAM: The Open Source CFD Toolbox           |
|  \\    /   O peration     | Version:  2406                                  |
|   \\  /    A nd           | Website:  www.openfoam.com                      |
|    \\/     M anipulation  |                                                 |
\*---------------------------------------------------------------------------*/
FoamFile
{
    version     2.0;
    format      ascii;
    arch        "LSB;label=32;scalar=64";
    class       surfaceScalarField;
    location    "0.26";
    object      phi;
}
// * * * * * * * * * * * * * * * * * * * * * * * * * * * * * * * * * * * * * //

dimensions      [0 3 -1 0 0 0 0];

oriented        oriented;

internalField   nonuniform List<scalar> 
23794
(
-2.035214e-05
0.000451602
-0.0004312499
0.000374799
-0.0003951511
0.0007608069
-0.000386008
0.001030039
-0.0002692323
0.001198477
-0.0001684374
0.001217419
-1.894262e-05
0.0008330247
0.0003843944
-0.0001592082
0.0009922329
-0.0009669085
0.0008077003
-0.0006858971
-0.0002810114
0.0008836833
-0.00156958
0.001929913
-0.00104623
7.374285e-05
0.00185617
-0.001857181
0.001930924
-0.001729197
-0.0001279846
-0.0008217904
-0.0009074062
5.423103e-05
-0.0008760214
-0.0003539244
0.0004081554
-0.002148418
0.001794494
-0.003404169
0.001255751
-0.00324005
-0.0001641198
-0.001060225
-0.002179824
0.001215951
-0.002276176
0.002625303
-0.001409352
0.004284079
-0.001658776
0.007285431
-0.003001352
0.01076633
-0.003480903
0.01189761
-0.001131277
0.005542794
0.006354816
-0.003609752
0.009152546
-0.004065739
0.0004559873
0.0007052788
-0.004771018
0.005050004
-0.004344725
0.006811555
-0.001761551
0.005343184
0.001468371
0.002688966
0.002654218
-0.001064003
0.003752969
-0.006127954
0.005063951
-0.00996657
0.003838616
-0.01207389
0.002107325
-0.013232
0.001158104
-0.01397177
0.0007397672
-0.01448757
0.0005158001
-0.01485157
0.0003640034
-0.01510448
0.0002529119
-0.01517798
7.349382e-05
-0.01516753
-1.04494e-05
-0.01511541
-5.211603e-05
-0.0150192
-9.621459e-05
-0.01490688
-0.0001123199
-0.01473711
-0.0001697672
-0.01452776
-0.0002093518
-0.01426044
-0.000267321
-0.01396981
-0.0002906275
-0.01366237
-0.0003074328
-0.01330139
-0.0003609816
-0.01292109
-0.0003803042
-0.01253257
-0.0003885166
-0.0120806
-0.0004519735
-0.01160631
-0.0004742847
-0.01110716
-0.0004991502
-0.01060173
-0.0005054388
-0.01007564
-0.0005260827
-0.009500852
-0.0005747909
-0.008934181
-0.0005666704
-0.008326759
-0.0006074221
-0.007702613
-0.0006241464
-0.007073214
-0.0006293988
-0.006436418
-0.0006367959
-0.005770105
-0.000666313
-0.005103019
-0.0006670863
-0.004428739
-0.0006742797
-0.003741722
-0.0006870166
-0.003056617
-0.0006851055
-0.002393464
-0.0006631527
-0.001694593
-0.0006988706
-0.001021009
-0.0006735845
-0.0003803596
-0.0006406492
0.0002846821
-0.0006650417
0.001067364
-0.0007826816
0.001813811
-0.0007464471
0.002533785
-0.0007199743
0.00323511
-0.0007013253
0.003914808
-0.0006796981
0.004590431
-0.0006756222
0.005243822
-0.0006533917
0.005906899
-0.0006630769
0.00654916
-0.0006422609
0.007156377
-0.0006072165
0.007767304
-0.0006109276
0.008365374
-0.0005980699
0.008940335
-0.0005749609
0.009512279
-0.0005719445
0.01007213
-0.000559852
0.01057849
-0.0005063612
0.01108139
-0.0005028937
0.01157085
-0.0004894589
0.01202137
-0.0004505245
0.01247367
-0.0004522995
0.01287648
-0.000402806
0.01325385
-0.0003773728
0.0135941
-0.0003402544
0.01389386
-0.0002997535
0.01419096
-0.0002971055
0.01445315
-0.0002621862
0.01467824
-0.0002250938
0.0148633
-0.0001850633
0.01500868
-0.0001453753
0.01512673
-0.0001180462
0.01518489
-5.816256e-05
0.01522428
-3.939568e-05
0.01519157
3.271496e-05
0.01499755
0.0001940231
0.01467114
0.0003264041
0.01421149
0.0004596546
0.01354973
0.0006617589
0.01247287
0.001076856
0.0104851
0.001987769
0.006725313
0.003759791
0.001528819
0.005196494
-0.0024456
0.003974418
-0.005171677
0.002726077
-0.006763617
0.00159194
-0.005116091
-0.001647525
-0.00111211
-0.004003981
0.003586645
-0.004698755
0.004351914
-0.000765269
-0.004317838
0.008669752
-0.01128352
0.006965681
-0.01102554
-0.0002579776
-0.007681622
-0.00334392
-0.004756125
-0.002925496
-0.002927108
-0.001829017
-0.001480183
-0.001446925
0.0008504982
-0.002330681
0.003498923
-0.002648425
0.004042448
-0.0005435244
0.002954765
0.001087683
0.002052159
0.0009026055
0.001764278
0.0002878813
0.001710701
5.357729e-05
0.001201526
0.0005091749
-0.0002542714
0.001455797
-0.001240897
0.0009866258
-0.0003387593
-0.0009021379
0.0005622628
-0.0009010221
0.0002174337
0.0003448291
-0.0008746769
0.001092111
-0.001671771
0.0007970943
-0.001997356
0.0003255844
-0.002017123
1.976753e-05
-0.001876837
-0.0001402858
-0.001671556
-0.0002052812
-0.001449843
-0.000221713
-0.001201418
-0.0002484248
-0.0008439807
-0.0003574375
-0.0003923787
0.0001404774
0.0004445075
-0.001016235
0.000668135
-0.0009228087
0.00119382
-0.0009116927
0.001580348
-0.0006557606
0.001851418
-0.0004395073
0.002008594
-0.0001761187
0.001865242
0.0005277464
0.0006731559
0.002184319
-0.0004842731
0.001965129
-0.0001455412
-0.0006197433
0.001191809
-0.002906931
0.001893546
-0.001747967
-0.0006479691
0.004397686
-0.002569932
0.003852886
-0.001819725
-0.0008781909
-0.000790258
-0.001936873
0.0003347262
-0.002001006
1.157906e-05
0.0007313025
-0.003009584
0.004815657
-0.0057241
0.003970267
-0.004868308
-0.001019912
-0.001733764
-0.005314368
0.0006160959
-0.004626036
0.002074031
-0.002867287
0.003835344
-0.003420089
0.007171245
-0.006337253
0.01108019
-0.007389847
0.01390244
-0.00395353
0.01001756
0.0102397
-0.0005365774
0.01970668
-0.004804482
0.004723892
-0.00213164
-0.007443861
-0.0007070918
-0.005769273
0.002209199
-0.004677841
0.002695901
0.0009816689
-0.003784277
0.009134395
-0.0128795
0.01284819
-0.0187201
0.01090455
-0.0210266
0.006145109
-0.02169528
0.002776006
-0.02190248
0.001365304
-0.02195389
0.0007911737
-0.02193119
0.0004931082
-0.02186373
0.0002965354
-0.02176828
0.0001574678
-0.02156945
-0.000125342
-0.02135624
-0.000223654
-0.02112686
-0.0002814926
-0.02085075
-0.0003723255
-0.02055969
-0.0004033804
-0.02020896
-0.0005205029
-0.01981916
-0.0005991478
-0.0193666
-0.0007198856
-0.01888954
-0.0007676833
-0.01840153
-0.000795447
-0.01785567
-0.0009068358
-0.01728625
-0.0009497293
-0.0167127
-0.0009620606
-0.01606627
-0.001098411
-0.01539874
-0.001141814
-0.01470254
-0.001195345
-0.01399853
-0.001209447
-0.0132765
-0.001248119
-0.01249634
-0.001354953
-0.01172736
-0.00133565
-0.01091604
-0.001418741
-0.01008308
-0.001457106
-0.009247308
-0.00146517
-0.008407139
-0.001476964
-0.007530826
-0.001542626
-0.006652647
-0.001545266
-0.005768621
-0.001558305
-0.004870791
-0.001584847
-0.003977607
-0.001578289
-0.003108047
-0.001532713
-0.002202338
-0.001604579
-0.001325303
-0.00155062
-0.0004838177
-0.001482134
0.0003843851
-0.001533245
0.001388222
-0.001786519
0.002354378
-0.001712603
0.003290875
-0.001656471
0.004203439
-0.001613889
0.005093168
-0.001569427
0.005979674
-0.001562128
0.006840501
-0.00151422
0.007712674
-0.00153525
0.008561718
-0.001491305
0.009368182
-0.001413681
0.01018121
-0.001423953
0.01098346
-0.001400322
0.01175683
-0.001348327
0.01252728
-0.001342394
0.01328809
-0.001320668
0.01398577
-0.001204044
0.01468356
-0.001200682
0.01536625
-0.001172142
0.01600535
-0.001089629
0.01664842
-0.001095368
0.01723316
-0.0009875514
0.0177965
-0.0009407081
0.01831816
-0.0008619187
0.01879523
-0.0007768198
0.01927584
-0.0007777178
0.01971933
-0.0007056727
0.02012192
-0.0006276888
0.02048356
-0.0005467023
0.02080412
-0.0004659321
0.02109809
-0.0004120201
0.02133172
-0.0002917884
0.021562
-0.0002696748
0.02176696
-0.0001722423
0.02188539
7.558615e-05
0.02196171
0.0002500863
0.02200687
0.0004144955
0.02200004
0.0006685921
0.02185227
0.001224619
0.02132232
0.002517724
0.019262
0.005820108
0.0136749
0.0107836
0.00463269
0.01301662
-0.002245041
0.009603808
-0.002015999
0.001362897
0.0009645137
-0.004628038
0.002328808
-0.005368275
0.004809416
-0.007179363
0.001825866
0.002218281
-0.008675475
0.01917109
-0.01333218
0.01162238
-0.01130025
-0.002289902
-0.007603869
-0.007040304
-0.004347552
-0.006181813
-0.002401215
-0.003775354
-0.0008823454
-0.002965794
0.001449296
-0.004662323
0.004890574
-0.006089703
0.006649285
-0.002302236
0.004916793
0.002820176
0.002565061
0.003254337
0.001877905
0.0009750368
0.001768053
0.0001634297
0.001610075
0.0006671526
0.0002185359
0.002847336
-0.001279424
0.002484586
-0.0008995439
-0.001282018
-0.0005165256
-0.00128404
-0.001220439
0.001048743
-0.002408968
0.002280639
-0.002903786
0.001291912
-0.002890698
0.0003124963
-0.002735866
-0.0001350646
-0.002486562
-0.0003895898
-0.002167666
-0.0005241767
-0.001834644
-0.0005547346
-0.00146918
-0.0006138895
-0.0009791445
-0.0008474728
-0.0009270157
0.0002742
0.0004398275
-0.001730262
0.0009201846
-0.001568793
0.001560846
-0.001552354
0.002030995
-0.001125909
0.002366165
-0.0007746771
0.002533916
-0.0003438701
0.00260604
0.0004556226
0.002051251
0.002739107
0.001221135
0.002795246
0.001031281
-0.0004298899
0.001354682
-0.003230332
0.000846937
-0.001240221
-0.001684922
0.006929544
-0.002984913
0.005152878
-0.00192642
-0.001936685
-0.0007031203
-0.003160173
0.000645971
-0.003350097
0.0005412253
0.0008360482
-0.002964864
0.008321746
-0.006829279
0.007834682
-0.006158705
-0.001690486
-0.002903413
-0.00856966
-0.0007313494
-0.0067981
0.0005369837
-0.00413562
0.002266262
-0.005149368
0.006091791
-0.01016278
0.01081001
-0.01210807
0.01353001
-0.006673529
0.010733
0.01303671
0.001638347
0.02880134
-0.005944487
0.01230673
-0.009002415
-0.004385932
-0.01050508
-0.004266611
-0.009894055
-0.005288863
-0.01165952
0.002747132
-0.01771885
0.01519373
-0.02382479
0.01895413
-0.02559893
0.0126787
-0.0255378
0.006083978
-0.02555602
0.002794229
-0.02566647
0.001475752
-0.02575162
0.0008763208
-0.02580129
0.0005427814
-0.02580402
0.0002992668
-0.0257712
0.0001246488
-0.02558367
-0.0003128798
-0.0253489
-0.0004584226
-0.02508729
-0.0005431035
-0.02477072
-0.0006888913
-0.02443805
-0.0007360539
-0.0240312
-0.0009273549
-0.02357877
-0.00105157
-0.02304977
-0.001248893
-0.0224909
-0.001326551
-0.02191994
-0.001366404
-0.02127682
-0.001549955
-0.02060544
-0.001621111
-0.01993048
-0.001637017
-0.01916531
-0.001863584
-0.01837499
-0.00193214
-0.01754987
-0.002020457
-0.01671499
-0.002044328
-0.01585844
-0.00210467
-0.0149299
-0.002283495
-0.01401596
-0.002249584
-0.01304853
-0.002386173
-0.01205527
-0.002450369
-0.01105772
-0.002462722
-0.01005426
-0.002480418
-0.009006668
-0.002590221
-0.007956184
-0.002595749
-0.006897316
-0.002617174
-0.005821765
-0.002660397
-0.004749927
-0.002650127
-0.003704432
-0.002578209
-0.002616855
-0.002692156
-0.001562587
-0.002604888
-0.0005501725
-0.002494549
0.0004878693
-0.002571286
0.001678445
-0.002977094
0.00283014
-0.002864298
0.003948711
-0.002775042
0.005038344
-0.002703522
0.006101145
-0.002632228
0.007159734
-0.002620717
0.008186803
-0.002541289
0.009227309
-0.002575756
0.01023909
-0.002503086
0.01119972
-0.002374307
0.01216814
-0.002392381
0.01312256
-0.002354736
0.01404194
-0.002267704
0.01495796
-0.002258417
0.0158615
-0.002224214
0.01668841
-0.00203095
0.01751604
-0.002028311
0.01832467
-0.001980774
0.01907969
-0.00184465
0.01984122
-0.001856895
0.02053049
-0.001676826
0.02119497
-0.001605189
0.02180834
-0.001475287
0.02236648
-0.001334959
0.02293061
-0.001341845
0.02344741
-0.001222477
0.02391662
-0.001096898
0.02433535
-0.0009654338
0.02470485
-0.0008354292
0.02504297
-0.0007501426
0.02530768
-0.0005564912
0.02556822
-0.0005302166
0.02577354
-0.0003775605
0.02584144
7.681529e-06
0.02584675
0.000244772
0.02581656
0.0004446945
0.02575507
0.0007300806
0.02565272
0.001326966
0.02564894
0.002521504
0.02581275
0.005656296
0.02435549
0.01224086
0.01857734
0.01879477
0.01250579
0.01567537
0.01059666
0.003272026
0.01120728
-0.005238657
0.01003476
-0.004195764
0.007079481
-0.00422408
-0.0003456775
0.009643439
-0.009500819
0.02832623
-0.01295189
0.01507345
-0.01104679
-0.004195002
-0.006536948
-0.01155014
-0.002782872
-0.009935889
-0.0008337042
-0.005724522
0.0005208377
-0.004320336
0.002633852
-0.006775338
0.006134694
-0.009590544
0.00811442
-0.004281962
0.005727462
0.005207134
0.002668626
0.006313173
0.001944008
0.001699655
0.001745864
0.0003615734
0.001592082
0.0008209344
0.0005680657
0.003871353
-0.001158908
0.00421156
-0.001867216
-0.0005737106
-0.002315877
-0.0008353795
-0.002922946
0.001655812
-0.003408027
0.00276572
-0.003511902
0.001395787
-0.003475741
0.0002763355
-0.003313998
-0.0002968077
-0.003004904
-0.0006986836
-0.002605017
-0.0009240639
-0.002178956
-0.0009807954
-0.001710289
-0.001082556
-0.001099681
-0.001458081
-0.001586869
0.0003699131
0.00050955
-0.002609725
0.00117608
-0.00237496
0.001972444
-0.002348719
0.002559747
-0.001713212
0.002976308
-0.001191238
0.00319779
-0.0005653529
0.003307566
0.000345847
0.003297553
0.00274912
0.002961653
0.003131147
0.002274949
0.0002568137
0.0014829
-0.002438283
-0.0002448241
0.0004875023
-0.002462794
0.009147515
-0.003077651
0.005767735
-0.001925448
-0.003088888
-0.0004194244
-0.004666197
0.001186249
-0.00495577
0.001134149
0.0008881477
-0.002507495
0.01196339
-0.007328211
0.0126554
-0.007527901
-0.001490796
-0.004687064
-0.0114105
-0.003014577
-0.008470588
-0.002227271
-0.004922926
-0.0001069387
-0.0072697
0.0042813
-0.01455102
0.009472176
-0.01729895
0.01216688
-0.009368232
0.00961071
0.01559288
0.001714755
0.03669729
-0.0104563
0.02447778
-0.01966362
0.004821381
-0.02395438
2.415222e-05
-0.02571281
-0.003530435
-0.02774667
0.004780991
-0.03011385
0.01756091
-0.03093985
0.01978013
-0.0303525
0.01209135
-0.03035957
0.006091041
-0.03076109
0.003195748
-0.03104215
0.001756811
-0.03120806
0.001042238
-0.03128054
0.0006152599
-0.03127334
0.0002920658
-0.03121521
6.651766e-05
-0.03095902
-0.0005690684
-0.03065221
-0.0007652384
-0.03031386
-0.0008814513
-0.02990947
-0.00109328
-0.02949004
-0.001155487
-0.02898384
-0.001433552
-0.02842459
-0.001610815
-0.02777449
-0.001898993
-0.02708939
-0.002011657
-0.02639143
-0.002064362
-0.02560894
-0.00233244
-0.02479285
-0.00243721
-0.02397319
-0.002456669
-0.02304894
-0.002787833
-0.02209274
-0.002888349
-0.02109601
-0.003017187
-0.02008897
-0.003051364
-0.01905737
-0.003136272
-0.01793809
-0.003402771
-0.0168392
-0.003348472
-0.01567493
-0.003550449
-0.01448135
-0.003643944
-0.01328164
-0.003662432
-0.01207558
-0.003686484
-0.01081672
-0.003849079
-0.009554282
-0.003858185
-0.008281116
-0.00389034
-0.006989123
-0.003952391
-0.005698257
-0.003940992
-0.004438521
-0.003837945
-0.003126009
-0.004004667
-0.001851168
-0.003879729
-0.0006254372
-0.00372028
0.0006200856
-0.003816809
0.002034689
-0.004391697
0.003409791
-0.004239399
0.004750782
-0.004116034
0.006055786
-0.004008526
0.007327787
-0.003904229
0.008594524
-0.003887454
0.009823594
-0.003770359
0.01107156
-0.003823723
0.01228309
-0.003714613
0.01343645
-0.003527667
0.01460064
-0.003556569
0.01574621
-0.003500308
0.01685296
-0.003374451
0.0179575
-0.003362965
0.01904438
-0.003311087
0.02004272
-0.003029296
0.02104298
-0.003028569
0.02201937
-0.00295716
0.02293372
-0.002759006
0.02385662
-0.002779787
0.02469377
-0.002513981
0.02550123
-0.002412646
0.02624852
-0.002222582
0.02693288
-0.002019316
0.02762408
-0.002033047
0.02825889
-0.001857286
0.02883969
-0.001677692
0.02935901
-0.001484763
0.02982258
-0.001298991
0.03025016
-0.001177722
0.03059175
-0.0008980874
0.03092896
-0.0008674212
0.03120448
-0.0006530841
0.0313128
-0.0001006381
0.0313316
0.0002259725
0.03129186
0.0004844337
0.03117583
0.0008461144
0.03092376
0.001579029
0.03055208
0.002893184
0.0305285
0.005679879
0.03119893
0.01157043
0.03063038
0.01936332
0.0284764
0.01782935
0.02652834
0.005220086
0.02486662
-0.003576938
0.02122003
-0.0005491782
0.0126243
0.004371649
-1.251024e-05
0.02228025
-0.008296342
0.03661007
-0.01139718
0.01817429
-0.00975305
-0.005839128
-0.004740191
-0.016563
-0.0006098463
-0.01406623
0.001912813
-0.008247181
0.0028141
-0.005221624
0.004446312
-0.00840755
0.007564408
-0.01270864
0.00906626
-0.005783814
0.005862324
0.00841107
0.002563059
0.009612438
0.001912715
0.00235
0.001667042
0.0006072457
0.00128847
0.001199506
0.0005388905
0.004620933
-0.001313599
0.006064049
-0.002874503
0.0009871938
-0.00373637
2.64869e-05
-0.004101819
0.002021261
-0.004150999
0.0028149
-0.004227431
0.001472219
-0.004268867
0.0003177719
-0.004088486
-0.0004771883
-0.003729245
-0.001057925
-0.003240689
-0.00141262
-0.002698951
-0.001522533
-0.002095877
-0.001685631
-0.001326614
-0.002227344
-0.002403933
0.0003248622
0.0007563958
-0.003690983
0.001322479
-0.003372577
0.002312919
-0.003339158
0.003051369
-0.002451662
0.003589006
-0.001728876
0.003923917
-0.0009002639
0.004048818
0.000220946
0.004256656
0.002541282
0.004212536
0.003175267
0.003309974
0.001159376
0.001685074
-0.0008133828
-0.0008989807
0.003071557
-0.002798314
0.01104685
-0.002889719
0.00585914
-0.00161109
-0.004367517
0.0002234973
-0.006500784
0.002161893
-0.006894166
0.001942132
0.001107909
-0.001598615
0.01550414
-0.007225799
0.01828258
-0.008937964
0.0002213686
-0.007156316
-0.01319214
-0.00639454
-0.009232363
-0.006058702
-0.005258764
-0.004146556
-0.009181846
0.0006981502
-0.01939573
0.005886396
-0.02248719
0.008929012
-0.01241085
0.006209094
0.01831279
-0.001425017
0.04433141
-0.01710227
0.04015504
-0.02917154
0.01689065
-0.0339344
0.004787015
-0.03672472
-0.0007401205
-0.03837987
0.006436146
-0.03790979
0.01709083
-0.03632647
0.0181968
-0.03571651
0.0114814
-0.03610204
0.006476569
-0.03656745
0.003661156
-0.0368943
0.002083664
-0.03710123
0.001249161
-0.03722574
0.0007397743
-0.03723906
0.0003053846
-0.03720441
3.187064e-05
-0.03692275
-0.0008507305
-0.03658135
-0.001106636
-0.03620085
-0.00126196
-0.03572855
-0.001565576
-0.03525327
-0.001630767
-0.03465779
-0.002029032
-0.03400503
-0.002263574
-0.03323547
-0.002668556
-0.03242459
-0.002822534
-0.0316017
-0.002887251
-0.03066942
-0.003264724
-0.02969747
-0.00340916
-0.02872468
-0.003429454
-0.02762282
-0.003889694
-0.02647934
-0.00403183
-0.02528818
-0.004208349
-0.02408687
-0.004252674
-0.02285584
-0.004367295
-0.02151308
-0.004745534
-0.02020203
-0.004659519
-0.01880622
-0.004946263
-0.01737857
-0.005071594
-0.01594115
-0.005099852
-0.01449807
-0.005129566
-0.01298796
-0.005359191
-0.01147347
-0.005372669
-0.009943397
-0.005420415
-0.008393589
-0.005502199
-0.006841123
-0.005493458
-0.005326253
-0.005352815
-0.003741048
-0.005589872
-0.002196653
-0.005424125
-0.0007088714
-0.005208061
0.0007864144
-0.005312095
0.002467469
-0.006072752
0.004109424
-0.005881355
0.00571587
-0.00572248
0.007272932
-0.005565587
0.008789648
-0.005420945
0.01030343
-0.005401238
0.01177314
-0.005240066
0.01327127
-0.005321851
0.01471952
-0.005162869
0.01610427
-0.004912411
0.0175042
-0.004956499
0.01887291
-0.004869028
0.02019992
-0.004701453
0.02152931
-0.004692361
0.02282833
-0.004610107
0.02402321
-0.004224175
0.02522312
-0.00422848
0.02639051
-0.004124547
0.02748036
-0.003848855
0.02858617
-0.003885599
0.02958346
-0.003511274
0.03054462
-0.003373808
0.0314324
-0.003110363
0.03224146
-0.002828374
0.03306205
-0.002853632
0.03380753
-0.002602769
0.03449318
-0.002363337
0.03509802
-0.002089607
0.035636
-0.001836975
0.0361348
-0.001676515
0.03651589
-0.001279183
0.03690106
-0.001252589
0.0372038
-0.0009558199
0.03730374
-0.0002005787
0.037299
0.0002307128
0.03721669
0.000566735
0.03706166
0.001001149
0.03676437
0.001876317
0.03635534
0.003302216
0.03597977
0.006055448
0.03655616
0.01099404
0.03819703
0.01772245
0.0388649
0.01716149
0.0373995
0.006685481
0.03467618
-0.0008536128
0.03058468
0.00354232
0.019829
0.01512733
0.004497703
0.03761155
-0.004721792
0.04582956
-0.007793998
0.02124649
-0.006078219
-0.007554907
-0.00108715
-0.02155407
0.003396329
-0.01854971
0.005677698
-0.01052855
0.006164509
-0.005708435
0.006952528
-0.009195569
0.009100428
-0.01485654
0.009400418
-0.006083805
0.005323347
0.01248814
0.002096284
0.0128395
0.001495153
0.002951131
0.001256925
0.0008454731
0.0006224869
0.001833944
8.138735e-05
0.005162032
-0.001803805
0.007949242
-0.003769618
0.002953007
-0.004666873
0.0009237415
-0.004949978
0.002304365
-0.005000531
0.002865454
-0.005197347
0.001669035
-0.005284863
0.0004052873
-0.005099949
-0.000662102
-0.004700479
-0.001457395
-0.004128043
-0.001985057
-0.003464246
-0.00218633
-0.002714002
-0.002435875
-0.001760221
-0.003181125
-0.003407758
0.0001072533
0.001213753
-0.005011989
0.001337152
-0.004602475
0.002578806
-0.004580813
0.003506894
-0.00337975
0.004211776
-0.002433757
0.004687431
-0.001375918
0.004909959
-1.582189e-06
0.005173882
0.002277359
0.005200364
0.003148785
0.00424356
0.00211618
0.002086306
0.001343871
-0.001050833
0.006208696
-0.002671708
0.01266772
-0.002374095
0.005561527
-0.0007279572
-0.006013655
0.001554972
-0.008783713
0.003852374
-0.009191568
0.00328389
0.001676393
-0.0002110584
0.01899909
-0.006467282
0.02453881
-0.01029114
0.004045223
-0.01035816
-0.01312512
-0.01099914
-0.008591384
-0.01139253
-0.004865373
-0.009995143
-0.01057924
-0.005622836
-0.02376803
-0.001083096
-0.02702693
0.001505852
-0.0149998
-0.0003527767
0.02017142
-0.01071824
0.05469687
-0.02609155
0.05552834
-0.03682375
0.02762286
-0.04043314
0.0083964
-0.04361646
0.002443205
-0.04525367
0.008073356
-0.04441295
0.01625011
-0.04314859
0.01693244
-0.0431405
0.0114733
-0.04366679
0.00700286
-0.04419132
0.004185694
-0.04455811
0.002450451
-0.04477241
0.001463458
-0.0448966
0.0008639626
-0.04485399
0.0002627753
-0.04478787
-3.424686e-05
-0.0444253
-0.001213303
-0.04400327
-0.00152866
-0.04352696
-0.001738276
-0.0429324
-0.002160128
-0.04236177
-0.002201402
-0.04163098
-0.002759821
-0.04084261
-0.003051948
-0.03990888
-0.003602284
-0.03892558
-0.00380583
-0.03793639
-0.003876443
-0.03680875
-0.00439237
-0.03563747
-0.004580433
-0.03447224
-0.004594689
-0.0331474
-0.005214533
-0.03176797
-0.005411258
-0.03033788
-0.005638444
-0.0288956
-0.005694955
-0.0274219
-0.005840989
-0.02580326
-0.006364177
-0.02423867
-0.006224105
-0.02256049
-0.006624444
-0.02084943
-0.006782656
-0.01912683
-0.006822451
-0.0174011
-0.006855293
-0.01559278
-0.007167511
-0.01378207
-0.007183383
-0.01194374
-0.007258748
-0.01008643
-0.007359504
-0.008215009
-0.007364881
-0.006399477
-0.007168347
-0.004488225
-0.007501124
-0.002612001
-0.007300349
-0.0008022477
-0.007017814
0.0009962709
-0.007110613
0.002997854
-0.008074335
0.004962457
-0.007845957
0.006873348
-0.007633372
0.00872263
-0.007414869
0.01053152
-0.007229831
0.01234436
-0.007214079
0.01410685
-0.007002562
0.01591314
-0.007128142
0.01764517
-0.006894895
0.01931183
-0.00657907
0.02100238
-0.006647048
0.02263864
-0.006505293
0.02423058
-0.006293393
0.02584223
-0.006304006
0.02739928
-0.006167156
0.02883097
-0.005655867
0.03027702
-0.005674528
0.03168069
-0.005528223
0.03298578
-0.005153943
0.03431859
-0.005218409
0.03551868
-0.00471136
0.03667536
-0.004530495
0.03774197
-0.004176967
0.03871888
-0.003805284
0.03971524
-0.003849989
0.04061091
-0.003498439
0.04144898
-0.003201408
0.04218044
-0.002821068
0.04284029
-0.002496828
0.0434542
-0.002290425
0.04392939
-0.001754369
0.04440835
-0.001731555
0.04478163
-0.0013291
0.04494095
-0.0003598932
0.04496589
0.0002057725
0.04491346
0.0006191667
0.04476268
0.001151929
0.04442925
0.002209741
0.04398486
0.003746607
0.04349955
0.006540761
0.04349893
0.01099466
0.044754
0.01646738
0.04570604
0.01620945
0.04427757
0.008113946
0.04107854
0.002345416
0.03784629
0.006774573
0.0287074
0.02426621
0.01354008
0.05277887
0.002860758
0.05650888
0.0001116897
0.02399556
0.001230847
-0.008674065
0.005395817
-0.02571904
0.009200566
-0.02235446
0.01095609
-0.01228407
0.01069455
-0.0054469
0.01020126
-0.008702279
0.01063281
-0.01528809
0.008950866
-0.004401861
0.004036268
0.01740274
0.0009782494
0.01589752
0.0002484824
0.003680898
-3.755619e-05
0.001131512
-0.000848366
0.002644754
-0.001241718
0.005555384
-0.002780889
0.009488413
-0.004756682
0.004928799
-0.005526549
0.001693609
-0.005890879
0.002668695
-0.006108068
0.003082643
-0.006420202
0.001981169
-0.006556511
0.0005415963
-0.006397163
-0.0008214496
-0.005979244
-0.001875315
-0.005334334
-0.002629966
-0.004541941
-0.002978723
-0.003626879
-0.003350938
-0.002452272
-0.004355731
-0.004646278
-0.0002405961
0.001848937
-0.00662033
0.001319072
-0.006162144
0.002911884
-0.006173624
0.0040521
-0.004519967
0.004968514
-0.003350172
0.005622615
-0.002030019
0.005988893
-0.0003678596
0.006280668
0.001985584
0.006296136
0.003133316
0.00536545
0.003046865
0.002971364
0.003737957
-0.0004661756
0.009646236
-0.00176985
0.0139714
-0.001045605
0.004837282
0.0009482532
-0.008007513
0.003874266
-0.01170973
0.006519147
-0.01183645
0.005494162
0.002701378
0.00160085
0.0228924
-0.005257139
0.0313968
-0.0114909
0.01027898
-0.01420149
-0.01041452
-0.01692714
-0.005865739
-0.01859927
-0.003193242
-0.01874275
-0.01043576
-0.01585075
-0.02666003
-0.01192224
-0.03095544
-0.008721543
-0.0182005
-0.01397678
0.02542666
-0.02460331
0.0653234
-0.03735715
0.06828218
-0.04421237
0.03447808
-0.04716134
0.01134537
-0.05090891
0.006190774
-0.05279273
0.009957183
-0.0525188
0.01597617
-0.05177713
0.01619077
-0.05185756
0.01155374
-0.05230497
0.007450267
-0.05285711
0.004737838
-0.05326409
0.002857422
-0.05352138
0.001720755
-0.05372123
0.001063809
-0.05366645
0.0002079913
-0.05366395
-3.674035e-05
-0.0531865
-0.001690753
-0.05270507
-0.002010094
-0.05215216
-0.002291183
-0.0514217
-0.002890587
-0.0507744
-0.002848707
-0.04988486
-0.003649355
-0.04895847
-0.003978342
-0.04783959
-0.004721163
-0.04665388
-0.004991542
-0.04548086
-0.005049458
-0.04413367
-0.005739564
-0.04272852
-0.005985578
-0.04132971
-0.0059935
-0.03975167
-0.006792573
-0.0380999
-0.007063035
-0.03638771
-0.007350632
-0.03463953
-0.007443137
-0.03290032
-0.0075802
-0.03093911
-0.008325386
-0.02907775
-0.008085457
-0.02705221
-0.008649985
-0.02500504
-0.008829827
-0.02294671
-0.008880779
-0.02085089
-0.008951119
-0.01870365
-0.009314752
-0.01654693
-0.009340101
-0.01434425
-0.009461425
-0.01213882
-0.00956494
-0.009851314
-0.009652382
-0.00769995
-0.009319712
-0.005396626
-0.009804448
-0.003111003
-0.009585973
-0.0009051548
-0.009223662
0.001265191
-0.009280959
0.003653131
-0.01046228
0.006003463
-0.01019629
0.008240499
-0.009870408
0.01044583
-0.009620197
0.01262432
-0.009408326
0.0147969
-0.009386656
0.01691282
-0.009118488
0.01910641
-0.009321732
0.02118163
-0.00897011
0.02317588
-0.008573316
0.02520672
-0.008677897
0.02718569
-0.008484256
0.02910071
-0.008208415
0.03102718
-0.008230476
0.03290079
-0.008040768
0.03461063
-0.007365707
0.03634296
-0.007406853
0.03800436
-0.007189624
0.03958162
-0.006731204
0.04118007
-0.006816863
0.04260862
-0.006139907
0.04400591
-0.005927786
0.04526525
-0.00543631
0.04643389
-0.00497392
0.04763214
-0.005048236
0.04868351
-0.004549811
0.04969687
-0.004214771
0.05054813
-0.003672322
0.05133694
-0.003285646
0.05207506
-0.003028545
0.05261512
-0.002294422
0.05318598
-0.002302416
0.05365005
-0.001793171
0.05380498
-0.0005148261
0.05381281
0.0001979466
0.05370826
0.0007237132
0.05352083
0.001339364
0.05313558
0.00259499
0.05268961
0.004192579
0.05227814
0.006952228
0.05222777
0.01104503
0.05300794
0.01568721
0.05338368
0.01583371
0.05172792
0.009769708
0.04796219
0.00611115
0.04496928
0.009767479
0.03929168
0.02994381
0.02728154
0.06478902
0.01629656
0.06749386
0.01082828
0.02946384
0.01218343
-0.01002922
0.01572615
-0.02926177
0.01785586
-0.02448416
0.01822703
-0.01265524
0.01657519
-0.003795062
0.01423792
-0.006365005
0.0120753
-0.01312547
0.007819422
-0.0001459848
0.002083176
0.02313898
-0.000770066
0.01875076
-0.00217216
0.005082992
-0.002534231
0.001493582
-0.003098935
0.003209458
-0.003230774
0.005687223
-0.004328778
0.01058642
-0.005984466
0.006584487
-0.006579491
0.002288633
-0.007089381
0.003178585
-0.007484807
0.003478069
-0.007920365
0.002416726
-0.008151942
0.0007731739
-0.00804905
-0.0009243417
-0.00763955
-0.002284815
-0.006937
-0.003332517
-0.006004413
-0.003911309
-0.004884846
-0.004470505
-0.003399804
-0.005840774
-0.006197145
-0.0006093948
0.002651567
-0.008662502
0.001469805
-0.008241343
0.003501704
-0.008205524
0.004821305
-0.005839568
0.006025988
-0.004554855
0.006919809
-0.002923839
0.007393619
-0.0008416704
0.00769699
0.001682214
0.007731876
0.003098431
0.006800553
0.003978188
0.004348263
0.006190247
0.000975144
0.01301935
0.0002698619
0.01467668
0.001727938
0.003379206
0.003933528
-0.0102131
0.007403462
-0.01517966
0.01020001
-0.014633
0.008654515
0.004246872
0.003941014
0.0276059
-0.003329791
0.0386676
-0.01213579
0.01908498
-0.01871793
-0.003832381
-0.02435199
-0.000231677
-0.02788108
0.0003358445
-0.03091152
-0.007405322
-0.03089513
-0.02667642
-0.02994115
-0.03190943
-0.02808899
-0.02005265
-0.03589805
0.03323572
-0.04512589
0.07455124
-0.05091797
0.07407427
-0.05298585
0.03654596
-0.05641578
0.0147753
-0.06057701
0.010352
-0.062696
0.01207617
-0.06287969
0.01615987
-0.06239449
0.01570557
-0.06252167
0.01168093
-0.06297948
0.007908075
-0.06360475
0.005363103
-0.06405514
0.003307815
-0.06426258
0.001928199
-0.06456949
0.001370712
-0.06437625
1.475571e-05
-0.06434179
-7.120511e-05
-0.06383776
-0.002194779
-0.06322363
-0.002624224
-0.06262026
-0.002894558
-0.06165468
-0.003856159
-0.06092419
-0.003579199
-0.05984056
-0.004732989
-0.05875794
-0.005060959
-0.05739413
-0.006084972
-0.05593961
-0.006446064
-0.05455616
-0.006432907
-0.05297078
-0.007324943
-0.05122072
-0.00773564
-0.04954918
-0.00766504
-0.04768263
-0.00865912
-0.04572034
-0.009025329
-0.0436296
-0.009441371
-0.0415106
-0.009562139
-0.03952186
-0.009568937
-0.03708013
-0.01076711
-0.03489952
-0.01026607
-0.03239228
-0.01115722
-0.02999738
-0.01122473
-0.02752994
-0.01134822
-0.02497806
-0.011503
-0.02244826
-0.01184455
-0.01984011
-0.01194825
-0.01719044
-0.0121111
-0.01460429
-0.01215109
-0.01181082
-0.01244585
-0.009304475
-0.01182606
-0.006485968
-0.01262295
-0.003719932
-0.01235201
-0.001027343
-0.01191625
0.001623569
-0.01193187
0.004503421
-0.01334213
0.007205762
-0.01289863
0.009823793
-0.01248844