/*--------------------------------*- C++ -*----------------------------------*\
| =========                 |                                                 |
| \\      /  F ield         | OpenFOAM: The Open Source CFD Toolbox           |
|  \\    /   O peration     | Version:  2406                                  |
|   \\  /    A nd           | Website:  www.openfoam.com                      |
|    \\/     M anipulation  |                                                 |
\*---------------------------------------------------------------------------*/
FoamFile
{
    version     2.0;
    format      ascii;
    arch        "LSB;label=32;scalar=64";
    class       volVectorField;
    location    "4.24";
    object      U;
}
// * * * * * * * * * * * * * * * * * * * * * * * * * * * * * * * * * * * * * //

dimensions      [0 1 -1 0 0 0 0];

internalField   nonuniform List<vector> 
15536
(
(0.01521178 0.7498571 -2.018816e-24)
(0.01475718 0.2323949 -3.489404e-19)
(0.02167084 -0.340524 -6.430627e-19)
(0.08117584 -0.5302463 -6.040615e-19)
(0.01988288 -0.223325 -8.277351e-21)
(-0.1054176 0.368408 3.506463e-21)
(-0.3356493 1.235986 2.591834e-21)
(-0.623234 1.979577 -2.578101e-21)
(0.1013944 0.04932834 8.311518e-19)
(1.16899 -2.526121 2.079231e-18)
(1.458026 -3.128348 0)
(1.340405 -2.677091 0)
(1.092476 -2.030372 -1.009839e-20)
(0.7498974 -1.353121 2.294159e-18)
(0.4942262 -0.8298192 1.295106e-18)
(0.9385554 -1.197544 -3.632242e-18)
(1.211454 -1.507401 2.200907e-18)
(-0.4737483 0.3850131 2.591188e-20)
(-2.499987 2.568095 -6.247241e-20)
(-4.131305 4.177712 3.645009e-20)
(-4.947486 4.776231 0)
(-3.942036 3.750242 4.616715e-18)
(-0.9454379 1.095207 0)
(3.486568 -2.34983 -1.555383e-18)
(3.979287 -2.773271 1.58119e-20)
(0.4202009 -0.458885 8.551702e-22)
(-2.258287 1.133933 -8.679299e-22)
(-3.627433 1.817337 -2.371695e-18)
(-5.020051 2.291453 -3.821976e-18)
(-7.456212 3.05423 0)
(-10.14335 3.854623 -5.843629e-20)
(-10.68503 3.94866 -8.313137e-18)
(-4.346605 1.750908 6.870596e-18)
(3.79977 -0.9068667 0)
(0.7470621 -0.4485875 -4.794197e-18)
(-2.133219 0.02262456 -2.550415e-20)
(-1.798989 0.09368664 3.27576e-18)
(4.739327 -0.1019549 -1.514258e-18)
(9.42294 0.1116508 1.499041e-21)
(11.96345 0.5580465 -3.816357e-19)
(13.3412 1.124767 1.562732e-18)
(14.15481 1.771205 -2.492092e-20)
(14.65708 2.442718 2.47076e-20)
(14.94556 3.11402 0)
(15.07536 3.77446 -6.205219e-18)
(15.06343 4.409958 -6.154417e-18)
(14.90415 5.009946 0)
(14.66131 5.580064 -1.16873e-17)
(14.35239 6.121377 1.137659e-17)
(14.00136 6.636468 1.096308e-17)
(13.59778 7.110893 3.982071e-20)
(13.13583 7.540483 -9.91024e-18)
(12.62333 7.920199 0)
(12.0695 8.252024 0)
(11.48376 8.53243 7.952055e-18)
(10.86365 8.75323 7.272571e-18)
(10.22757 8.925579 4.806191e-20)
(9.582083 9.047889 5.688301e-18)
(8.914158 9.101563 9.928859e-18)
(8.236596 9.094989 4.180176e-18)
(7.557399 9.031184 3.336922e-18)
(6.890148 8.919692 -2.326313e-20)
(6.231743 8.750842 0)
(5.579726 8.517783 9.185457e-19)
(4.94755 8.237209 0)
(4.331285 7.895814 7.212441e-19)
(3.739984 7.499721 -2.950578e-20)
(3.18368 7.059617 -2.81663e-21)
(2.661732 6.572979 1.023516e-20)
(2.178496 6.044249 -3.669488e-18)
(1.739735 5.481955 -1.793463e-20)
(1.346056 4.883515 2.477024e-18)
(0.9990493 4.250795 2.738047e-18)
(0.7040317 3.599274 0)
(0.4605966 2.9343 0)
(0.2718144 2.252545 3.344676e-18)
(0.1348102 1.562157 -2.778703e-22)
(0.05284685 0.8804909 9.102318e-19)
(0.02726679 0.1782613 1.683264e-21)
(0.05428107 -0.6055974 -7.019011e-21)
(0.1288989 -1.3954 -1.736098e-18)
(0.262111 -2.13614 0)
(0.4507146 -2.841333 3.118508e-18)
(0.6916746 -3.52039 0)
(0.9837904 -4.173002 -2.620922e-18)
(1.324887 -4.797161 2.307838e-18)
(1.714376 -5.391669 1.699128e-20)
(2.148922 -5.954681 3.3784e-18)
(2.625443 -6.476591 8.949521e-21)
(3.139818 -6.955233 -1.940699e-18)
(3.689277 -7.391988 -1.149013e-18)
(4.271138 -7.780673 5.537538e-21)
(4.883674 -8.123779 5.244868e-19)
(5.518176 -8.4165 -1.383849e-18)
(6.168259 -8.654781 2.086991e-20)
(6.823707 -8.825401 6.816713e-21)
(7.489919 -8.943014 -3.950999e-18)
(8.1625 -9.007703 0)
(8.832923 -9.011591 1.118312e-17)
(9.503892 -8.965704 6.352872e-18)
(10.15569 -8.855959 1.094442e-19)
(10.78457 -8.684704 -8.059982e-18)
(11.38667 -8.455197 0)
(11.96103 -8.171729 0)
(12.50697 -7.842197 0)
(13.0156 -7.464711 0)
(13.47704 -7.040555 1.140016e-17)
(13.88814 -6.573599 1.204237e-17)
(14.24946 -6.068646 2.55296e-20)
(14.55484 -5.532585 -1.296551e-17)
(14.78951 -4.964039 -6.629652e-18)
(14.93413 -4.365213 -6.861052e-18)
(14.93671 -3.732322 5.375383e-20)
(14.76279 -3.070057 7.034286e-18)
(14.36559 -2.388709 3.630275e-18)
(13.60618 -1.714496 -2.812511e-20)
(12.07968 -1.088458 -6.864179e-21)
(8.828047 -0.5020994 4.593778e-19)
(3.394039 -0.03611386 -9.494251e-19)
(-0.0154485 0.04022495 -2.49989e-20)
(-2.542993 -0.5735042 1.650837e-20)
(-6.476416 -1.336993 4.833691e-18)
(-7.255377 -1.509974 3.658311e-20)
(-5.065476 -1.063736 0)
(-2.883661 -0.6422172 -6.141188e-18)
(-0.7859151 -0.05563622 -5.492955e-18)
(3.12467 1.361457 -6.317261e-21)
(6.796393 2.850851 6.182071e-18)
(1.164179 0.09419658 -1.083724e-17)
(-7.064821 -4.180821 0)
(-9.134694 -5.328106 0)
(-7.334816 -4.487773 -1.445906e-17)
(-4.86726 -3.177148 0)
(-2.840069 -2.012441 6.608892e-20)
(-1.502111 -1.143069 -8.164799e-18)
(-0.3902469 -0.3082596 -7.331992e-18)
(0.6188477 0.5885533 4.732104e-20)
(1.567393 1.588047 -1.101931e-17)
(2.318995 2.533094 -7.881156e-20)
(2.939492 3.423702 9.87409e-18)
(2.657332 3.209817 5.15681e-18)
(1.206792 1.57842 5.391158e-18)
(0.8101631 1.388012 5.3129e-18)
(1.526067 2.646661 0)
(1.773404 3.16341 -2.928303e-20)
(0.7672283 1.33586 -7.929179e-18)
(-0.7807004 -2.253902 0)
(-1.750394 -5.048554 9.523604e-18)
(-2.061256 -6.417008 -7.621282e-20)
(-1.963592 -6.79902 3.855542e-20)
(-1.656255 -6.61689 4.779165e-18)
(-1.303152 -6.162285 5.615888e-21)
(-0.9439458 -5.408112 0)
(-0.6137153 -4.409358 1.681814e-18)
(-0.346939 -3.241498 1.233192e-20)
(-0.1671392 -1.944295 2.084244e-21)
(-0.04734339 -0.6092763 -2.104195e-21)
(-0.1188691 0.8950273 -1.683153e-19)
(-0.06604074 1.836925 2.840534e-19)
(-0.1139185 1.724653 0)
(-0.2149455 1.429982 4.913382e-19)
(-0.3559953 1.548847 0)
(-0.4761506 1.652808 1.360998e-18)
(-0.7168987 2.346719 2.083586e-21)
(-0.777627 2.682075 -2.08375e-21)
(0.7076386 -1.045479 -6.567093e-19)
(1.542576 -3.26229 -1.671831e-18)
(1.337791 -3.055615 0)
(1.147118 -2.536986 1.086209e-20)
(0.8727876 -1.786161 -2.742973e-21)
(0.8971811 -1.601227 -9.386822e-19)
(1.443681 -2.176452 -2.113669e-18)
(1.792861 -2.435781 1.456912e-18)
(0.9531376 -1.488354 -1.73917e-18)
(-1.184217 0.795979 -1.463364e-20)
(-3.091308 2.847416 0)
(-4.601458 4.371748 0)
(-5.354424 4.966869 0)
(-5.196472 4.850161 3.624887e-18)
(-3.12579 3.227571 -6.42357e-22)
(3.259088 -1.822975 6.541914e-22)
(4.456784 -3.374228 -1.161328e-20)
(0.9283656 -1.153047 1.151407e-20)
(-0.7574013 0.1016953 0)
(-1.546772 0.5862752 0)
(-2.422866 0.7975262 6.488188e-18)
(-4.546794 1.355316 6.798069e-20)
(-6.997804 2.151443 -6.579622e-20)
(-9.514207 3.365688 6.948267e-18)
(-7.014839 2.838694 5.144042e-18)
(1.310422 0.04267004 -2.684694e-20)
(3.467889 -0.8996813 -3.788207e-18)
(6.486774 -0.8757516 2.321515e-18)
(9.970277 -0.5697382 4.492926e-22)
(15.35942 -0.46367 9.834892e-19)
(17.96749 -0.252459 0)
(18.64922 0.1676845 2.800105e-19)
(18.87259 0.7522251 2.337404e-18)
(18.90563 1.429501 2.426892e-18)
(18.82239 2.125493 2.452291e-18)
(18.65112 2.821939 -7.630503e-20)
(18.41824 3.524034 4.977992e-18)
(18.13193 4.215031 -3.784528e-20)
(17.8072 4.893099 0)
(17.4214 5.539825 9.310446e-18)
(16.97653 6.156052 0)
(16.4898 6.739653 -6.586952e-20)
(15.95369 7.277833 6.605715e-20)
(15.36477 7.767333 7.908942e-18)
(14.73016 8.201763 -5.546207e-20)
(14.05697 8.581356 6.905462e-18)
(13.3531 8.902201 -6.394102e-18)
(12.62162 9.161507 0)
(11.87289 9.36806 3.794848e-20)
(11.11385 9.517482 -4.664833e-18)
(10.34003 9.596706 -7.900479e-18)
(9.556023 9.607398 0)
(8.774199 9.560007 -2.678326e-18)
(8.003704 9.456175 -1.302222e-20)
(7.245208 9.288444 1.338072e-18)
(6.499708 9.05575 2.825231e-21)
(5.773894 8.764065 -2.859318e-21)
(5.071764 8.410519 -5.851043e-19)
(4.397027 7.998957 1.223402e-18)
(3.760304 7.534514 0)
(3.162584 7.022563 0)
(2.608731 6.466998 -1.958207e-20)
(2.103095 5.869712 0)
(1.648566 5.232539 0)
(1.246924 4.559498 0)
(0.9029408 3.862062 -2.458751e-18)
(0.6152565 3.150662 1.976473e-20)
(0.393225 2.419179 1.134396e-20)
(0.2276963 1.678689 -5.560678e-21)
(0.1258028 0.943346 -7.47232e-19)
(0.09552932 0.1851668 3.0333e-21)
(0.1321522 -0.6493478 -7.455585e-19)
(0.2178201 -1.491902 1.414684e-18)
(0.3760719 -2.284998 1.076637e-20)
(0.5985046 -3.04026 -2.528511e-18)
(0.8800329 -3.768235 -3.693024e-20)
(1.220368 -4.4686 2.171412e-18)
(1.615625 -5.135304 -1.920132e-18)
(2.066518 -5.768283 0)
(2.565677 -6.366999 -5.517897e-18)
(3.111658 -6.916928 -1.480036e-20)
(3.701662 -7.420938 1.574672e-18)
(4.329939 -7.882296 9.383561e-19)
(4.993989 -8.287928 0)
(5.69228 -8.640512 0)
(6.41637 -8.944054 0)
(7.158066 -9.182195 1.638817e-20)
(7.912572 -9.350907 -1.627632e-20)
(8.679523 -9.461122 3.105432e-18)
(9.453432 -9.511291 5.521885e-21)
(10.23044 -9.497602 -4.525097e-18)
(11.00497 -9.425174 -7.37581e-20)
(11.76663 -9.28922 1.157148e-17)
(12.50729 -9.086804 6.412534e-18)
(13.22258 -8.820973 -5.210207e-20)
(13.91515 -8.498259 7.449975e-18)
(14.58003 -8.12388 6.078589e-20)
(15.20956 -7.692794 -6.894457e-20)
(15.79621 -7.210809 6.86483e-20)
(16.33637 -6.680688 7.552814e-20)
(16.82963 -6.108845 9.919187e-18)
(17.27229 -5.500117 -7.822421e-20)
(17.64882 -4.855836 0)
(17.96979 -4.185035 0)
(18.25714 -3.50195 0)
(18.49426 -2.817593 0)
(18.66167 -2.141043 2.132017e-20)
(18.72783 -1.484193 -2.118258e-20)
(18.63156 -0.9464734 1.29492e-18)
(17.75082 -0.5614026 4.94547e-21)
(14.21246 -0.2111849 0)
(7.98426 0.0501334 -1.430194e-18)
(-2.203268 -0.5473754 3.489399e-18)
(-4.244209 -0.8689671 -4.197373e-18)
(-0.6647677 0.09197385 5.651302e-20)
(0.7691855 0.5354161 -6.33411e-18)
(1.837289 0.8034282 4.270797e-20)
(2.715855 1.219973 0)
(4.617541 2.180582 6.325324e-18)
(7.367671 3.028959 -1.003746e-17)
(-1.62535 -1.850332 -7.841163e-18)
(-8.740291 -5.270934 2.405155e-20)
(-8.476783 -4.646988 -2.248727e-19)
(-7.005483 -3.869488 1.043174e-19)
(-4.7242 -2.717184 0)
(-2.905334 -1.824241 7.381235e-18)
(-1.689176 -1.098505 6.520019e-18)
(-0.6606617 -0.331452 5.581543e-21)
(0.4057192 0.6379764 -5.201515e-18)
(1.563007 1.856927 8.880165e-18)
(2.566606 3.05479 3.967026e-18)
(3.133766 3.859882 -7.718447e-21)
(3.606683 4.42941 -4.075263e-18)
(2.551214 3.223759 -3.277722e-20)
(1.294578 2.095533 -4.320312e-18)
(1.301217 2.388646 4.206178e-20)
(1.388834 2.291246 7.287405e-21)
(-0.3644919 -1.660147 -5.570439e-20)
(-2.061044 -5.593763 0)
(-2.624321 -7.000918 0)
(-2.546229 -7.133518 -7.984725e-18)
(-2.282757 -7.075653 0)
(-1.956637 -6.872812 -7.831394e-18)
(-1.554052 -6.337226 3.631138e-18)
(-1.153421 -5.520644 -2.318618e-20)
(-0.784519 -4.44864 2.346995e-20)
(-0.4810134 -3.207582 1.170189e-18)
(-0.2919365 -1.882807 -4.905248e-19)
(-0.1901059 -0.6411014 -1.954815e-19)
(-0.2291607 0.7040069 1.348439e-19)
(-0.184019 2.058584 -2.294977e-19)
(-0.2654434 3.04419 6.299355e-21)
(-0.4562599 3.549968 -3.975869e-19)
(-0.6709966 3.635423 0)
(-0.7823455 3.2308 -1.094212e-18)
(-0.9092402 3.205713 -3.387875e-21)
(-0.6043778 2.745665 8.231662e-20)
(1.203878 -1.590019 5.236059e-19)
(1.551444 -2.949765 1.368314e-18)
(1.309669 -2.995271 1.668916e-18)
(1.041391 -2.461232 -1.150671e-20)
(0.7075086 -1.553151 0)
(0.7831863 -1.304492 0)
(1.623756 -2.379347 8.452964e-19)
(1.79392 -2.520037 1.209914e-18)
(0.4332184 -1.154369 1.426311e-18)
(-1.762099 1.00603 2.343894e-20)
(-3.503161 2.920192 0)
(-4.775272 4.354261 3.658555e-18)
(-5.314203 4.996163 4.183671e-18)
(-4.904538 4.836416 -2.963777e-18)
(-3.586726 4.159175 0)
(1.659347 -0.04234114 -8.899333e-19)
(3.937599 -3.087185 0)
(1.91485 -2.002339 7.368465e-19)
(1.567132 -1.218174 0)
(1.505466 -0.9496056 -1.675034e-18)
(0.7642288 -0.801449 -5.37241e-18)
(-1.333215 -0.2651711 0)
(-3.670352 0.7460853 0)
(-4.815231 2.033696 3.697369e-20)
(-5.367357 2.812082 -4.239219e-18)
(2.335861 0.3205452 2.37437e-18)
(11.06738 -1.662169 5.42586e-18)
(14.83166 -1.525449 -1.615162e-18)
(17.13085 -0.9181046 1.572897e-18)
(18.51859 -0.3778205 -7.807903e-19)
(18.40857 0.01969069 0)
(18.28651 0.5835273 0)
(18.3282 1.271179 -1.944568e-18)
(18.33066 1.996775 -2.035483e-18)
(18.26703 2.722066 -4.006236e-18)
(18.12796 3.43967 3.980951e-18)
(17.92955 4.146585 9.396129e-20)
(17.67121 4.823296 -6.240217e-20)
(17.34408 5.475852 0)
(16.9512 6.08741 0)
(16.5041 6.669353 7.292723e-18)
(16.01588 7.221137 -7.036443e-18)
(15.48205 7.723822 0)
(14.89782 8.177636 0)
(14.27124 8.575331 9.097711e-20)
(13.60753 8.920309 -5.757026e-18)
(12.91616 9.206095 0)
(12.20046 9.429427 -4.655037e-18)
(11.46836 9.602707 -4.182227e-18)
(10.72884 9.719912 -3.641475e-18)
(9.97838 9.766222 3.175781e-18)
(9.217615 9.746715 -3.753216e-20)
(8.460072 9.672386 2.144273e-18)
(7.714558 9.544126 0)
(6.983579 9.352725 -1.091536e-18)
(6.267088 9.098181 -4.248066e-21)
(5.568587 8.788567 8.302038e-21)
(4.89967 8.415701 -5.458224e-19)
(4.25476 7.989362 0)
(3.647169 7.512574 -1.561163e-18)
(3.07703 6.991119 -1.746856e-20)
(2.551274 6.427867 2.485545e-18)
(2.070977 5.825751 1.459867e-18)
(1.640393 5.185608 -1.657019e-18)
(1.259889 4.511655 -1.840947e-18)
(0.9338041 3.814848 2.001001e-18)
(0.6597483 3.106252 -2.150704e-18)
(0.4529223 2.377801 -1.106438e-18)
(0.2944595 1.6426 2.339626e-18)
(0.1970186 0.91469 1.222532e-18)
(0.1733002 0.1663352 2.483701e-21)
(0.2171062 -0.649387 6.167553e-19)
(0.2949113 -1.478352 -9.219302e-21)
(0.4445089 -2.261114 0)
(0.6551784 -3.009541 -1.583406e-20)
(0.9202558 -3.733348 -1.353485e-20)
(1.241821 -4.43096 -1.718442e-18)
(1.614268 -5.096928 3.15364e-18)
(2.043536 -5.729992 -1.376982e-18)
(2.516055 -6.33239 2.238123e-18)
(3.03321 -6.888301 1.588838e-20)
(3.59611 -7.399658 0)
(4.194559 -7.87227 8.144319e-19)
(4.828311 -8.291248 -1.354019e-22)
(5.498096 -8.658536 2.590572e-19)
(6.19219 -8.981164 0)
(6.903947 -9.240559 1.386114e-18)
(7.63196 -9.431006 0)
(8.373097 -9.565982 -4.939006e-20)
(9.121136 -9.643909 3.054589e-18)
(9.876278 -9.657812 0)
(10.62848 -9.617037 -4.206181e-18)
(11.36999 -9.514593 -4.74656e-18)
(12.09286 -9.346764 -5.256422e-18)
(12.79245 -9.115987 0)
(13.47328 -8.827266 -1.244729e-17)
(14.12842 -8.488321 9.981094e-20)
(14.75099 -8.091775 0)
(15.33336 -7.644878 0)
(15.87201 -7.148696 0)
(16.36746 -6.608612 8.04219e-18)
(16.81203 -6.034984 -8.341004e-18)
(17.1975 -5.424086 0)
(17.51815 -4.777878 0)
(17.77537 -4.105086 4.41335e-18)
(17.97263 -3.40813 3.520882e-20)
(18.09986 -2.701722 0)
(18.15992 -1.994479 0)
(18.20509 -1.339586 -2.155506e-18)
(18.53348 -0.8504333 2.509351e-19)
(18.47419 -0.4910875 0)
(15.69412 -0.2195069 9.547178e-19)
(6.709099 -0.2889603 5.997601e-20)
(2.816748 0.3593927 1.256856e-20)
(5.74394 1.727621 -4.865691e-20)
(7.563985 2.346244 4.509758e-18)
(8.134338 2.585711 3.67904e-18)
(7.958903 2.819848 5.489919e-20)
(7.201027 3.095658 3.475235e-20)
(6.421472 2.220479 3.904996e-18)
(-2.937418 -3.267447 6.157559e-18)
(-6.873488 -4.778316 0)
(-7.31758 -4.001764 1.300405e-17)
(-5.924094 -2.927201 0)
(-3.790197 -1.803262 -1.007151e-19)
(-2.313396 -1.2278 -6.001828e-18)
(-1.445855 -0.7735247 7.983553e-20)
(-0.7739425 -0.2808032 -8.09569e-20)
(0.04135666 0.4854967 4.280918e-18)
(1.066154 1.584273 -3.628508e-18)
(2.145508 2.772096 -3.260261e-18)
(2.784446 3.539844 -3.330468e-18)
(3.46859 4.183977 -3.344995e-18)
(3.018779 3.602519 0)
(1.537514 2.310221 1.455661e-20)
(0.814493 1.390233 0)
(0.2648279 -0.4528177 -4.609422e-18)
(-1.269346 -4.348016 4.720794e-18)
(-2.217961 -6.472826 0)
(-2.384471 -6.758508 0)
(-2.331124 -6.965763 1.327952e-17)
(-2.142309 -7.047725 -3.355177e-18)
(-1.873975 -6.801394 6.44113e-18)
(-1.54399 -6.253372 -2.183303e-20)
(-1.203684 -5.421758 2.194611e-20)
(-0.8808555 -4.351 0)
(-0.5966049 -3.129606 -9.473565e-19)
(-0.4130395 -1.800533 7.801897e-19)
(-0.2995565 -0.477343 1.62376e-19)
(-0.3833901 0.754854 -2.196088e-19)
(-0.3536414 1.969586 -5.552952e-21)
(-0.4373135 3.136572 5.524694e-21)
(-0.6365795 4.029596 -9.339738e-21)
(-0.839306 4.389485 9.340758e-21)
(-0.919101 3.994889 4.489648e-19)
(-0.9641957 3.748211 -2.762881e-21)
(-0.2984094 2.741598 -6.49456e-20)
(1.58574 -1.63503 4.383219e-21)
(1.567956 -2.671315 -1.150984e-18)
(1.255326 -2.927036 -2.280722e-21)
(0.906425 -2.453119 0)
(0.5469281 -1.452064 0)
(0.5396169 -0.7821095 -6.312502e-19)
(1.393262 -1.904709 -6.935205e-19)
(1.431488 -2.21633 -2.011948e-18)
(-0.2857991 -0.7704748 -1.148631e-18)
(-2.275018 1.068414 0)
(-3.802873 2.830844 0)
(-4.85143 4.228813 -6.01903e-18)
(-5.173517 4.848604 -6.970899e-18)
(-4.544391 4.714071 2.56091e-20)
(-3.127495 4.347932 -2.419171e-20)
(0.3793962 1.661221 1.374831e-18)
(3.347226 -2.485232 1.510475e-18)
(3.215379 -2.836584 -6.033463e-19)
(3.928237 -2.462216 5.495183e-19)
(4.271599 -2.36922 1.259785e-18)
(3.684436 -2.3565 2.094941e-18)
(2.04794 -2.024548 0)
(0.1047507 -0.8883985 -1.46314e-19)
(-0.6911061 0.6738639 -1.13467e-17)
(-1.939914 2.286436 8.491055e-20)
(7.028049 0.1565933 9.209553e-20)
(16.09929 -1.900832 -1.938122e-18)
(17.80968 -1.828904 -1.191193e-18)
(18.38555 -1.168682 -4.33271e-20)
(18.19548 -0.5767833 -6.447366e-19)
(18.00992 -0.2733235 -3.468351e-19)
(18.22773 0.1963975 -2.8726e-21)
(18.399 0.8049503 0)
(18.47748 1.478911 -2.545762e-20)
(18.45375 2.176843 1.682749e-18)
(18.33926 2.873782 -6.578306e-18)
(18.15385 3.58086 5.067579e-20)
(17.9009 4.267813 -3.244022e-18)
(17.57878 4.931395 -9.746772e-20)
(17.19165 5.556302 -6.113777e-18)
(16.7477 6.155719 -7.216099e-21)
(16.26161 6.730415 5.804036e-18)
(15.73101 7.253201 -5.448915e-18)
(15.14889 7.729942 0)
(14.52363 8.149944 7.349083e-20)
(13.85916 8.519689 -7.396063e-20)
(13.16497 8.831662 0)
(12.44434 9.082134 3.834972e-18)
(11.70616 9.282244 7.421456e-20)
(10.95922 9.426177 3.044132e-18)
(10.20126 9.497956 -2.547385e-18)
(9.434428 9.50032 -2.115877e-18)
(8.666984 9.449384 -1.733471e-18)
(7.912339 9.342855 -1.255125e-18)
(7.172642 9.171344 9.634621e-21)
(6.44622 8.935747 -9.730785e-21)
(5.737202 8.644501 0)
(5.057586 8.288644 4.452624e-19)
(4.401519 7.878123 -1.691072e-20)
(3.783646 7.415288 1.299553e-18)
(3.20359 6.906337 1.661253e-18)
(2.670329 6.35356 -2.025042e-18)
(2.182497 5.760903 -1.198246e-18)
(1.745064 5.129085 -4.613746e-21)
(1.358034 4.46254 1.510296e-18)
(1.028352 3.771362 2.639321e-20)
(0.7491373 3.068267 1.723598e-18)
(0.5419298 2.343261 1.459587e-20)
(0.381532 1.611068 -9.777555e-19)
(0.2830188 0.8880239 -4.982106e-19)
(0.2648626 0.1468843 -6.179716e-23)
(0.3175929 -0.6479709 4.889966e-19)
(0.3902964 -1.463717 7.549441e-21)
(0.5365809 -2.23785 -9.096061e-19)
(0.7480553 -2.979329 1.715422e-18)
(1.01475 -3.695498 0)
(1.339117 -4.384293 -3.035265e-21)
(1.714622 -5.040687 -1.297154e-18)
(2.149683 -5.663428 1.160312e-18)
(2.626453 -6.255848 -1.925961e-18)
(3.152497 -6.7987 2.051254e-20)
(3.72595 -7.296263 -2.031885e-20)
(4.330414 -7.756706 -6.693035e-19)
(4.973703 -8.160059 0)
(5.657389 -8.508908 -2.19561e-19)
(6.35931 -8.816054 2.051914e-20)
(7.079916 -9.057189 -5.833768e-20)
(7.818394 -9.227339 -1.519125e-18)
(8.568326 -9.342301 -2.075807e-18)
(9.324392 -9.399063 -1.604049e-20)
(10.08717 -9.390467 2.900518e-18)
(10.84784 -9.325141 -4.90701e-20)
(11.59536 -9.198756 -3.784081e-18)
(12.32373 -9.0052 0)
(13.02976 -8.746299 4.597919e-18)
(13.7143 -8.431937 5.055966e-18)
(14.36982 -8.070226 5.246183e-18)
(14.99186 -7.650484 -5.58529e-18)
(15.57205 -7.182385 5.98639e-18)
(16.10801 -6.665167 0)
(16.60034 -6.104816 -1.316729e-17)
(17.04093 -5.516052 1.377118e-17)
(17.42145 -4.889765 -1.634181e-19)
(17.73721 -4.234371 -3.555142e-18)
(17.98996 -3.551409 -3.620912e-18)
(18.17012 -2.864412 0)
(18.26582 -2.178157 1.868283e-18)
(18.26053 -1.520938 -1.848504e-18)
(18.14674 -0.9445928 9.00655e-19)
(18.03305 -0.5453136 -2.17844e-19)
(18.45874 -0.3405607 -4.063057e-19)
(18.92416 -0.3374533 1.172068e-20)
(15.43337 -0.07404187 -1.764235e-18)
(13.16923 1.319404 4.7018e-20)
(13.52394 3.048044 0)
(13.63786 3.771446 0)
(13.28904 3.948798 -8.289975e-20)
(12.42994 4.008559 8.600523e-20)
(10.33657 3.84108 0)
(6.168131 1.359769 0)
(-2.438276 -3.927258 0)
(-4.91667 -4.188492 9.552186e-18)
(-6.075553 -3.208968 -2.200567e-17)
(-4.819051 -1.880937 8.137112e-18)
(-2.632868 -0.6916352 -5.88158e-18)
(-1.193988 -0.2719598 -1.650724e-19)
(-0.6694319 -0.0644556 4.555522e-18)
(-0.4528508 0.1154558 4.114751e-18)
(-0.02650843 0.6147314 5.147994e-20)
(0.7407922 1.528804 -5.53024e-21)
(1.760163 2.603854 -4.384023e-20)
(2.441329 3.350781 -4.322334e-20)
(3.140552 3.784819 2.880674e-18)
(3.109438 3.461193 0)
(1.598998 2.053353 2.908849e-18)
(0.30734 -0.0440687 -3.345279e-18)
(-0.5633618 -2.788392 3.593523e-18)
(-1.502134 -5.484331 0)
(-2.016187 -6.262548 0)
(-2.299169 -6.517508 -8.184764e-20)
(-2.362165 -6.855097 -5.497473e-18)
(-2.205055 -6.932878 2.859957e-18)
(-1.936611 -6.699008 -2.650739e-18)
(-1.624014 -6.148097 0)
(-1.308837 -5.303475 0)
(-1.007808 -4.223756 0)
(-0.7331446 -3.023967 -7.646439e-19)
(-0.5732637 -1.741386 -3.293388e-19)
(-0.4472632 -0.4322048 -2.652186e-19)
(-0.5539112 0.7669567 8.955509e-20)
(-0.5267594 1.982895 0)
(-0.5718298 3.119387 -2.735924e-19)
(-0.6989363 4.012627 0)
(-0.8370135 4.410214 -4.603832e-19)
(-0.8853899 4.064538 0)
(-0.8713083 3.91297 0)
(0.09443887 2.764619 -5.79117e-20)
(1.909184 -1.412242 -3.959055e-19)
(1.643287 -2.520031 9.634532e-19)
(1.217277 -2.901436 -1.142981e-18)
(0.7274931 -2.450488 8.950622e-19)
(0.3597658 -1.396887 0)
(0.3012308 -0.3502122 1.045159e-18)
(0.8398651 -0.9001032 5.773941e-19)
(0.8074282 -1.569615 8.6563e-19)
(-1.235446 -0.125747 -2.674152e-20)
(-2.786619 1.12933 -4.406177e-20)
(-4.057905 2.648562 -1.652171e-18)
(-4.890191 4.049662 5.019757e-18)
(-4.968987 4.700371 2.908469e-18)
(-4.119518 4.584982 4.434464e-20)
(-2.395062 4.208893 6.88097e-19)
(-0.113397 2.815804 -5.402019e-19)
(3.076506 -1.806196 -1.218155e-18)
(4.689984 -3.538837 0)
(6.218818 -3.565314 -2.92415e-20)
(6.940769 -3.671117 0)
(6.658794 -3.882251 1.599838e-18)
(5.650522 -3.876232 3.101506e-18)
(4.291765 -2.815696 6.428651e-18)
(2.778968 -0.6661785 -2.312112e-19)
(3.792923 1.337728 9.717974e-20)
(12.53635 0.02279511 -2.676147e-18)
(17.80556 -1.672371 0)
(17.41788 -1.721938 -9.365574e-19)
(17.74833 -1.082199 -1.080246e-18)
(17.64775 -0.4369303 1.083988e-18)
(17.74861 0.008606392 2.742685e-19)
(17.96094 0.5791148 0)
(18.102 1.231053 6.377006e-19)
(18.1636 1.924817 0)
(18.13392 2.618248 0)
(18.01707 3.297719 2.74723e-18)
(17.83034 3.992433 -4.181843e-20)
(17.58159 4.652509 4.83081e-20)
(17.26301 5.287927 -2.555359e-18)
(16.88234 5.879348 5.134232e-18)
(16.44518 6.446283 -4.889084e-18)
(15.96904 6.989591 -4.701261e-18)
(15.45435 7.471575 2.213705e-19)
(14.88601 7.914862 -1.360652e-19)
(14.27821 8.299223 -1.192606e-19)
(13.6305 8.63889 -3.419335e-18)
(12.95554 8.922541 -3.464833e-18)
(12.25497 9.144921 -9.05115e-20)
(11.5346 9.323243 2.868721e-18)
(10.81018 9.44508 0)
(10.0764 9.495 2.097626e-18)
(9.327965 9.482359 1.741798e-18)
(8.579855 9.418467 1.331016e-18)
(7.846784 9.300517 1.032708e-18)
(7.127652 9.120241 0)
(6.421957 8.876259 0)
(5.730233 8.581594 -7.144592e-20)
(5.070704 8.221492 0)
(4.428995 7.811051 0)
(3.827105 7.348936 1.132146e-18)
(3.263753 6.841224 -2.171749e-20)
(2.740437 6.292803 -1.423801e-20)
(2.260516 5.704401 -3.280864e-20)
(1.831397 5.076743 2.275726e-18)
(1.453083 4.414108 0)
(1.132795 3.726455 0)
(0.850071 3.030814 1.459236e-18)
(0.6475855 2.309038 7.320495e-19)
(0.4863705 1.578777 7.886727e-19)
(0.3865378 0.8605104 -4.078449e-19)
(0.3742271 0.1256709 0)
(0.4398663 -0.643483 -4.174682e-22)
(0.5076664 -1.446171 2.404987e-20)
(0.6416086 -2.212586 7.216308e-19)
(0.8462706 -2.945139 -1.406184e-18)
(1.10814 -3.651613 -3.945376e-20)
(1.428033 -4.331557 1.199336e-18)
(1.798588 -4.979894 3.51925e-20)
(2.228276 -5.595862 1.871277e-18)
(2.691427 -6.184775 -1.294396e-20)
(3.204058 -6.723982 -1.29626e-18)
(3.768504 -7.218927 3.392839e-20)
(4.358379 -7.680274 0)
(4.981141 -8.086506 2.444258e-19)
(5.650626 -8.437881 0)
(6.338189 -8.750112 0)
(7.036505 -9.001084 -9.015645e-19)
(7.755334 -9.180678 2.500867e-18)
(8.488314 -9.306123 5.66389e-20)
(9.223855 -9.377186 -1.087045e-19)
(9.966699 -9.384216 -2.382106e-18)
(10.70707 -9.338631 -2.695939e-18)
(11.43456 -9.233695 3.220179e-18)
(12.14173 -9.065587 -3.493511e-18)
(12.82635 -8.835097 -7.214201e-20)
(13.49394 -8.547069 0)
(14.13182 -8.21689 -4.541146e-18)
(14.73842 -7.828243 9.570615e-18)
(15.30422 -7.394589 -5.092086e-18)
(15.82679 -6.912764 0)
(16.30941 -6.387382 8.946176e-20)
(16.74138 -5.833877 -5.51815e-18)
(17.11575 -5.23899 -8.819979e-20)
(17.4283 -4.611788 1.394543e-19)
(17.67802 -3.952754 -9.250446e-20)
(17.85973 -3.277523 0)
(17.96006 -2.604015 -2.979703e-18)
(17.96993 -1.932258 1.438942e-18)
(17.8981 -1.30558 7.13417e-19)
(17.77111 -0.7787225 -1.105201e-20)
(17.74862 -0.3959081 3.345836e-19)
(18.77867 -0.3443835 6.311982e-19)
(19.05703 0.193422 0)
(18.72381 2.007658 1.762356e-18)
(17.99422 3.844984 -9.223722e-20)
(16.8309 4.491319 2.718832e-18)
(15.7391 4.553114 0)
(14.62424 4.457321 0)
(12.46562 4.001954 0)
(6.842646 0.6119681 5.273663e-20)
(-0.7215811 -4.005684 4.306808e-18)
(-3.068732 -3.602196 -8.470699e-18)
(-4.400805 -2.193707 9.680673e-18)
(-3.49508 -0.6717513 -1.338982e-17)
(-1.488171 0.4319896 4.975424e-18)
(0.0864221 0.8276671 0)
(0.5388649 0.9069155 -3.73213e-18)
(0.3596598 0.8319834 -3.313374e-18)
(0.279514 1.021613 2.974384e-18)
(0.6665565 1.706012 -8.165275e-20)
(1.533031 2.614387 -6.830287e-20)
(2.209425 3.264217 6.894423e-20)
(2.862216 3.441666 0)
(3.096915 3.139391 -2.28658e-18)
(1.643806 1.546363 7.804137e-20)
(0.03593657 -1.303181 5.20764e-18)
(-0.8003156 -3.966051 -2.960308e-18)
(-1.340303 -5.587608 1.979808e-19)
(-1.81004 -6.00134 -3.83315e-18)
(-2.174272 -6.437513 0)
(-2.25466 -6.761716 -4.532799e-18)
(-2.160266 -6.828089 2.354846e-18)
(-1.971938 -6.581839 -1.347593e-19)
(-1.708849 -6.030347 2.128525e-18)
(-1.434488 -5.179639 -8.435356e-20)
(-1.156634 -4.085329 2.562002e-20)
(-0.8927071 -2.894439 6.344691e-19)
(-0.7815209 -1.670809 -3.69571e-21)
(-0.6319153 -0.4184408 3.288664e-21)
(-0.7586094 0.7748128 4.23684e-21)
(-0.7334839 1.993602 1.19147e-19)
(-0.7380936 3.127286 2.22404e-19)
(-0.803158 4.012722 -2.09505e-19)
(-0.8501994 4.41929 3.789402e-19)
(-0.8327326 4.109695 0)
(-0.7164242 3.998401 1.852104e-19)
(0.5378694 2.83249 5.363575e-20)
(2.274632 -1.049762 3.211438e-19)
(1.77081 -2.412106 0)
(1.209526 -2.976067 0)
(0.551193 -2.435695 -7.307237e-19)
(0.1184543 -1.342994 -1.482471e-20)
(0.1270033 -0.2290925 -4.151911e-19)
(0.05839128 0.4335805 -4.544446e-19)
(-0.1267838 -0.4351713 -6.546972e-19)
(-2.127412 0.5715374 7.723094e-19)
(-3.288182 1.244417 -9.134518e-19)
(-4.337019 2.482633 1.294258e-18)
(-4.963951 3.874456 -2.026657e-18)
(-4.792611 4.624588 0)
(-3.630578 4.518067 0)
(-1.601768 3.989911 -6.067725e-19)
(0.1716243 3.364962 0)
(3.346184 -1.200742 2.297498e-20)
(6.25654 -3.987838 -2.053807e-20)
(8.24236 -4.332498 -3.023865e-19)
(9.200812 -4.699003 -1.718878e-20)
(9.335633 -5.216185 3.022399e-20)
(9.219238 -5.609316 -2.444455e-18)
(9.107283 -4.781919 -1.085996e-19)
(8.869364 -2.203644 3.278657e-18)
(10.99574 0.275758 -5.067595e-20)
(16.51183 -0.04838434 1.155658e-18)
(17.45845 -1.370958 -3.917008e-20)
(16.80616 -1.610847 3.24914e-18)
(17.48027 -1.065424 2.628726e-20)
(17.57451 -0.5531873 -6.669635e-21)
(17.77565 -0.173006 -4.652847e-19)
(17.98135 0.3272506 -3.815957e-21)
(18.1307 0.9153301 -5.256661e-19)
(18.19552 1.568301 -3.354989e-20)
(18.16722 2.242263 -1.038313e-18)
(18.04724 2.917667 2.140377e-18)
(17.86108 3.612217 -2.129114e-18)
(17.61894 4.269386 4.093965e-18)
(17.30324 4.927258 2.236688e-18)
(16.92454 5.534022 0)
(16.48618 6.119714 0)
(16.01062 6.685013 3.812258e-18)
(15.49695 7.18629 3.635323e-18)
(14.92904 7.64773 0)
(14.32429 8.043887 -9.575512e-20)
(13.67676 8.398113 3.100856e-18)
(12.99913 8.701464 2.76088e-18)
(12.2997 8.935901 2.420735e-18)
(11.58543 9.12001 -6.434449e-20)
(10.86297 9.254724 -1.839385e-18)
(10.12653 9.321137 4.678024e-20)
(9.382899 9.31471 -4.722855e-20)
(8.643213 9.254783 -1.122969e-18)
(7.913052 9.146656 7.947651e-19)
(7.190167 8.982049 0)
(6.492584 8.742714 0)
(5.803427 8.458495 1.419682e-19)
(5.152738 8.104656 -8.675094e-21)
(4.515512 7.703153 -8.311382e-21)
(3.928936 7.245695 -8.731137e-19)
(3.373551 6.745373 -2.282659e-18)
(2.84307 6.213459 1.306977e-18)
(2.365568 5.636424 -1.591563e-18)
(1.94106 5.018156 -8.904881e-19)
(1.571626 4.36212 -3.054623e-20)
(1.258925 3.67687 0)
(0.9688341 2.992303 -1.13908e-18)
(0.7783179 2.276327 -3.82523e-20)
(0.6124946 1.546931 -6.558759e-19)
(0.5111465 0.8339355 3.49519e-19)
(0.5056788 0.1035243 -3.366806e-24)
(0.5836023 -0.6366311 -3.477865e-19)
(0.6382621 -1.429722 2.977061e-20)
(0.767273 -2.184578 -6.288503e-19)
(0.9640516 -2.901815 1.152017e-18)
(1.220331 -3.596229 -1.109042e-18)
(1.536438 -4.266896 2.678858e-21)
(1.903038 -4.905674 9.11326e-19)
(2.337095 -5.510866 -1.489826e-18)
(2.791099 -6.094386 1.278764e-18)
(3.292536 -6.628346 9.705727e-19)
(3.857724 -7.114631 8.266829e-21)
(4.45504 -7.563704 8.700654e-21)
(5.069659 -7.963466 -1.896225e-19)
(5.722027 -8.316503 -6.086194e-20)
(6.409512 -8.62051 1.683349e-20)
(7.106335 -8.861862 6.525404e-19)
(7.816859 -9.035597 -2.009828e-18)
(8.541729 -9.157679 1.296033e-18)
(9.281968 -9.21154 -5.332784e-20)
(10.02178 -9.209087 -1.919157e-18)
(10.75425 -9.160033 4.438707e-18)
(11.48163 -9.042309 8.200053e-20)
(12.18554 -8.864381 2.709824e-18)
(12.87003 -8.61858 -3.160423e-18)
(13.53918 -8.314452 9.809297e-20)
(14.17561 -7.971867 -3.593188e-18)
(14.78243 -7.565254 -3.674115e-18)
(15.34704 -7.116433 1.267511e-19)
(15.87047 -6.612531 -4.233812e-18)
(16.35318 -6.066337 4.373611e-18)
(16.78449 -5.494483 0)
(17.1566 -4.883101 0)
(17.46524 -4.237853 2.383497e-18)
(17.71038 -3.577695 2.388435e-18)
(17.89245 -2.912193 0)
(17.9957 -2.251547 1.276491e-18)
(18.00717 -1.613949 1.166898e-18)
(17.92565 -1.049482 -5.986749e-19)
(17.82087 -0.6057 1.3806e-19)
(17.67724 -0.2654546 2.812081e-19)