/*--------------------------------*- C++ -*----------------------------------*\
| =========                 |                                                 |
| \\      /  F ield         | OpenFOAM: The Open Source CFD Toolbox           |
|  \\    /   O peration     | Version:  2406                                  |
|   \\  /    A nd           | Website:  www.openfoam.com                      |
|    \\/     M anipulation  |                                                 |
\*---------------------------------------------------------------------------*/
FoamFile
{
    version     2.0;
    format      ascii;
    arch        "LSB;label=32;scalar=64";
    class       surfaceScalarField;
    location    "3.82";
    object      phi;
}
// * * * * * * * * * * * * * * * * * * * * * * * * * * * * * * * * * * * * * //

dimensions      [0 3 -1 0 0 0 0];

oriented        oriented;

internalField   nonuniform List<scalar> 
23794
(
0.007739539
-0.007204211
-0.0005353275
0.008057467
-0.0003179287
0.007965758
9.170894e-05
0.007111175
0.0008545839
0.004890223
0.002220951
0.001025213
0.00386501
-0.002284874
0.003310087
-0.002727486
0.0004426116
-0.0009949458
-0.00173254
-0.001796971
0.0008020257
-0.004574786
0.002777815
-0.005746005
0.001171219
-0.004570233
-0.001175772
-0.003112358
-0.001457875
-0.002472778
-0.0006395803
-0.002161448
-0.00031133
-0.0008375606
-0.001323887
0.001457766
-0.002295326
0.003607883
-0.002150118
0.005380606
-0.001772722
0.007246665
-0.00186606
0.008670253
-0.001423588
0.009007786
-0.0003375324
0.005687901
0.003319885
-0.001726723
0.007414624
-0.005232508
0.003505784
-0.001993715
-0.003238792
0.001175095
-0.00316881
0.002414333
-0.001239238
0.003346045
-0.0009317116
0.005468909
-0.002122864
0.008885627
-0.003416718
0.009298894
-0.0004132675
0.00399243
0.005306464
-0.0002519814
0.004244412
-0.0004864311
0.0002344496
-0.001725893
0.001239462
-0.006553955
0.004828062
-0.01051042
0.003956469
-0.01275024
0.002239812
-0.01393111
0.001180877
-0.01463598
0.0007048642
-0.01510233
0.0004663554
-0.01541624
0.0003139053
-0.01562206
0.0002058211
-0.01565068
2.861726e-05
-0.01560906
-4.161802e-05
-0.01553468
-7.437522e-05
-0.0154174
-0.0001172829
-0.01528795
-0.0001294457
-0.01510222
-0.000185733
-0.01487891
-0.0002233106
-0.01459891
-0.0002800034
-0.0142976
-0.0003013027
-0.01398127
-0.0003163391
-0.01361238
-0.000368883
-0.01322603
-0.0003863566
-0.01283347
-0.0003925557
-0.01237755
-0.0004559184
-0.01190051
-0.000477039
-0.01139985
-0.0005006612
-0.01089418
-0.0005056727
-0.01036858
-0.000525594
-0.009794275
-0.0005743098
-0.009229401
-0.0005648739
-0.008624154
-0.0006052465
-0.008001781
-0.0006223726
-0.007375256
-0.0006265258
-0.006741695
-0.0006335612
-0.006077253
-0.0006644413
-0.005412144
-0.0006651091
-0.00473993
-0.000672214
-0.004055238
-0.0006846919
-0.003374943
-0.0006802951
-0.002714504
-0.0006604386
-0.002021262
-0.0006932423
-0.001353473
-0.0006677896
-0.0007107084
-0.0006427642
-1.170614e-05
-0.0006990022
0.0007735637
-0.0007852698
0.00151669
-0.0007431267
0.002233865
-0.0007171749
0.002936007
-0.0007021421
0.003619012
-0.0006830048
0.004299472
-0.0006804593
0.004958841
-0.0006593689
0.005629237
-0.0006703962
0.006279146
-0.0006499094
0.006893736
-0.0006145901
0.007511753
-0.0006180166
0.008116437
-0.0006046843
0.008697649
-0.0005812122
0.00927422
-0.0005765708
0.009835339
-0.0005611192
0.01034288
-0.0005075367
0.01084435
-0.0005014706
0.01132936
-0.000485012
0.01177298
-0.0004436227
0.01221541
-0.0004424307
0.01260516
-0.0003897485
0.01296647
-0.0003613142
0.01328768
-0.000321203
0.01356483
-0.0002771493
0.01383466
-0.0002698322
0.01406542
-0.0002307579
0.01425471
-0.0001892957
0.01439904
-0.0001443305
0.01449788
-9.883397e-05
0.01456145
-6.357439e-05
0.01455024
1.121362e-05
0.01448373
6.650557e-05
0.01430202
0.0001817092
0.01392164
0.0003803805
0.01332247
0.0005991736
0.01239251
0.0009299555
0.01075456
0.001637956
0.007595959
0.003158599
0.002661513
0.004934446
-0.001963798
0.004625311
-0.004075534
0.002111736
-0.004043899
-3.163531e-05
-0.0009220952
-0.003121804
0.003282543
-0.004204639
0.00100155
0.002280993
-0.007411801
0.008413352
-0.01156259
0.004150786
-0.009882609
-0.001679979
-0.006322367
-0.003560242
-0.003786088
-0.002536278
-0.002402383
-0.001383705
-0.0007754226
-0.001626961
0.001978449
-0.002753871
0.003909034
-0.001930586
0.002863792
0.001045242
0.001261894
0.001601898
0.0005265034
0.0007353901
-0.000168129
0.0006946324
-0.001291988
0.001123859
-0.0018632
0.0005712113
-0.001447473
-0.0004157273
-0.000192864
-0.001254609
0.001309305
-0.001502169
0.001932971
-0.0006236657
0.001759832
0.0001731389
0.0007219652
0.001037867
-0.0005370405
0.001259006
-0.001068245
0.000531205
-0.0004374658
-0.0006307796
0.0007355815
-0.001173047
0.001910651
-0.001175069
0.002779226
-0.0008685748
0.003491658
-0.0007124324
0.00412185
-0.0006301918
0.004825327
-0.0007034775
0.005609831
-0.0007845033
0.006474739
-0.0008649088
-0.0007294717
0.009943339
-0.009174476
-0.00130419
0.01043849
-0.0008130802
0.01066989
-0.0001396898
0.01067028
0.0008541903
0.009868261
0.003022972
0.006398964
0.007334307
0.000879866
0.008829186
-0.00276126
0.004083738
-0.003285436
-0.001208364
-0.004863262
0.002379853
-0.006932427
0.004846979
-0.007031458
0.001270251
-0.005576045
-0.002631186
-0.004590774
-0.002443145
-0.004483335
-0.0007470197
-0.003742405
-0.001052259
-0.001103653
-0.00396264
0.002137282
-0.005536261
0.004677227
-0.004690063
0.006710481
-0.003805976
0.008796356
-0.003951935
0.01038738
-0.003014615
0.01122364
-0.00117379
0.009286372
0.005257154
0.000342235
0.01635876
-0.006595561
0.01044358
-0.004286127
-0.005548227
-0.001747855
-0.005707083
-0.001442163
-0.001544929
-0.0009901183
-0.001383757
0.0009591649
-0.004072147
0.00403037
-0.006487923
0.006999769
-0.003382666
0.00521108
0.007095153
-0.001356078
0.01081157
-0.008609484
0.007487856
-0.01516396
0.007793941
-0.01960382
0.00926792
-0.02189974
0.006252388
-0.02248419
0.002824257
-0.02261691
0.001313602
-0.02261352
0.0007014764
-0.02255263
0.0004054608
-0.02245727
0.0002185503
-0.02234179
9.034193e-05
-0.02212446
-0.0001887118
-0.02189013
-0.0002759527
-0.02163632
-0.0003281876
-0.02133921
-0.0004143856
-0.0210305
-0.0004381602
-0.0206632
-0.0005530292
-0.02025883
-0.0006276857
-0.01979285
-0.0007459844
-0.01930442
-0.0007897286
-0.018807
-0.0008137653
-0.01825276
-0.000923115
-0.01767684
-0.0009622803
-0.01709904
-0.0009703516
-0.01644836
-0.001106607
-0.01577789
-0.001147509
-0.01508007
-0.001198481
-0.01437581
-0.001209932
-0.01365432
-0.001247082
-0.01287485
-0.001353774
-0.01210765
-0.00133208
-0.01129869
-0.001414207
-0.01046757
-0.001453492
-0.009634873
-0.001459221
-0.008798331
-0.001470103
-0.00792403
-0.001538743
-0.007047928
-0.00154121
-0.006166276
-0.001553866
-0.005271051
-0.001579917
-0.004383233
-0.001568114
-0.003517402
-0.00152627
-0.002618287
-0.001592357
-0.001747269
-0.001538807
-0.0009019687
-0.001488064
8.512029e-06
-0.001609483
0.001018334
-0.001795091
0.001981789
-0.001706582
0.002915821
-0.001651207
0.003829521
-0.001615842
0.004722937
-0.001576421
0.005614757
-0.001572279
0.006482354
-0.001526966
0.007362666
-0.001550708
0.008220464
-0.001507707
0.009035639
-0.001429765
0.009856961
-0.001439339
0.01066704
-0.001414766
0.01144801
-0.001362182
0.0122242
-0.001352756
0.01298776
-0.001324679
0.01368786
-0.00120764
0.01438534
-0.001198949
0.01506455
-0.001164223
0.01569761
-0.001076678
0.01633149
-0.001076314
0.01690381
-0.0009620674
0.01745154
-0.00090904
0.01795461
-0.0008242782
0.01840952
-0.0007320566
0.01886321
-0.0007235217
0.01927574
-0.0006432922
0.01964333
-0.0005568855
0.01996549
-0.0004664863
0.02024123
-0.0003745772
0.02048429
-0.0003066306
0.020668
-0.0001724957
0.02085844
-0.0001239377
0.02102285
1.729789e-05
0.02109105
0.0003121809
0.02108762
0.0006026034
0.02099169
0.001025883
0.02064386
0.001985785
0.01923917
0.004563297
0.01491953
0.009254078
0.008077212
0.01146763
0.002638102
0.007550846
0.001278299
0.001328168
0.001930382
-0.003773887
0.002765959
-0.005040216
-0.001895975
0.006942927
-0.01059501
0.01711238
-0.01239134
0.005947125
-0.009535483
-0.00453584
-0.005556209
-0.007539516
-0.002954144
-0.005138343
-0.001624312
-0.002713538
-5.267791e-05
-0.003198594
0.002828265
-0.005634814
0.005502276
-0.004604596
0.003867469
0.002680049
0.001029899
0.004439469
0.0002438584
0.00152143
2.514531e-05
0.0009133455
-0.0008453765
0.001994381
-0.001870331
0.001596166
-0.00194905
-0.0003370086
-0.0005539431
-0.002649715
0.001433099
-0.003489212
0.002233867
-0.001424433
0.00245826
-5.125398e-05
0.001629403
0.001866724
-0.0004933189
0.003381727
-0.000978546
0.001016432
0.0002654703
-0.001874796
0.001214895
-0.002122472
0.00235203
-0.002312204
0.003342064
-0.001858608
0.004170351
-0.00154072
0.004920831
-0.001380671
0.005853785
-0.001636432
0.006962328
-0.001893046
0.008162508
-0.00206509
-0.001741439
0.01200878
-0.01112249
-0.002190485
0.0125808
-0.001385099
0.01275172
-0.0003106129
0.01254423
0.001061683
0.01225458
0.003312621
0.01082866
0.008760226
0.006506994
0.01315085
0.0006426757
0.009948055
-0.003608415
0.003042726
-0.006305038
0.005076475
-0.007768436
0.006310377
-0.007910882
0.001412697
-0.006512834
-0.004029233
-0.005560803
-0.003395177
-0.005537273
-0.0007705496
-0.004283578
-0.002305954
-0.0007745137
-0.007471704
0.002883606
-0.009194381
0.005547033
-0.00735349
0.007664787
-0.005923729
0.009841694
-0.006128842
0.01149266
-0.004665577
0.0120609
-0.001742039
0.01062574
0.006692319
0.002257518
0.02472698
-0.006432194
0.01913329
-0.007569047
-0.004411373
-0.007599396
-0.005676734
-0.008643009
-0.000501316
-0.008605636
-0.001421129
-0.00651619
-0.006161594
-0.00270299
-0.01030112
0.000311124
-0.006396781
0.0006502243
0.006756053
-0.008972156
0.02043395
-0.02034559
0.01886129
-0.02566481
0.01311316
-0.02667663
0.01027974
-0.02651636
0.006092119
-0.02640137
0.002709259
-0.0264722
0.001384435
-0.02652654
0.0007558181
-0.0265453
0.0004242251
-0.02651926
0.0001925085
-0.02645978
3.085487e-05
-0.02624037
-0.0004081206
-0.02597579
-0.0005405309
-0.0256871
-0.0006168807
-0.02534568
-0.0007557985
-0.02499281
-0.000791033
-0.0245668
-0.0009790376
-0.02409756
-0.001096928
-0.02355307
-0.001290473
-0.02298108
-0.001361714
-0.02239942
-0.001395429
-0.02174677
-0.001575769
-0.02106808
-0.001640967
-0.02038863
-0.001649798
-0.01961883
-0.00187641
-0.01882548
-0.001940865
-0.01799892
-0.002025036
-0.0171643
-0.002044555
-0.01630895
-0.002102429
-0.01538177
-0.002280955
-0.01447079
-0.00224306
-0.01350687
-0.002378122
-0.01251653
-0.002443835
-0.01152341
-0.002452342
-0.01052505
-0.002468462
-0.009480432
-0.002583362
-0.008432907
-0.002588735
-0.007377194
-0.002609579
-0.006304732
-0.002652379
-0.00523884
-0.002634006
-0.004197192
-0.002567917
-0.003116223
-0.002673326
-0.002067708
-0.002587322
-0.001050311
-0.002505462
3.371976e-05
-0.002693513
0.001236007
-0.002997378
0.002386208
-0.002856784
0.00350297
-0.002767969
0.004594568
-0.00270744
0.005661986
-0.002643839
0.006726888
-0.002637182
0.007762025
-0.002562103
0.008812191
-0.002600875
0.009834482
-0.002529997
0.0108056
-0.002400884
0.01178398
-0.002417717
0.01274783
-0.002378619
0.01367646
-0.002290812
0.01459966
-0.002275959
0.01550656
-0.002231571
0.01633658
-0.002037668
0.01716404
-0.002026402
0.01796878
-0.001968966
0.01871688
-0.001824782
0.01946777
-0.0018272
0.02014248
-0.001636782
0.0207887
-0.001555256
0.02138031
-0.001415886
0.02191237
-0.001264122
0.02244456
-0.001255712
0.02292522
-0.001123952
0.02335323
-0.0009848957
0.02372579
-0.0008390455
0.02404274
-0.0006915285
0.0243207
-0.0005845834
0.02452017
-0.0003719705
0.02470402
-0.0003077821
0.02482577
-0.0001044571
0.02481872
0.0003192298
0.02473768
0.0006836439
0.02463404
0.001129529
0.02457747
0.002042349
0.02476876
0.004372011
0.02416692
0.00985592
0.02108032
0.01455423
0.01704577
0.0115854
0.01417234
0.004201599
0.01023281
0.0001656401
0.004546128
0.0006464672
-0.003540679
0.01502973
-0.01000029
0.023572
-0.01093357
0.006880397
-0.008164355
-0.007305052
-0.003450092
-0.01225378
-0.0006966514
-0.007891783
0.0004821419
-0.003892331
0.001297083
-0.004013536
0.003650952
-0.007988683
0.005782298
-0.006735942
0.003423207
0.00503914
0.0003024308
0.007560245
-0.0002395615
0.002063423
-0.0003374531
0.001011237
-0.0009824468
0.002639375
-0.002310662
0.002924381
-0.002703467
5.579595e-05
-0.0008242168
-0.004528965
0.001706356
-0.006019784
0.00266988
-0.002387957
0.002970179
-0.0003515532
0.002465582
0.002371321
0.0001194604
0.005727849
-0.0004722869
0.001608179
0.00105098
-0.003398063
0.001777372
-0.002848864
0.002413323
-0.002948156
0.003051194
-0.002496479
0.003940802
-0.002430328
0.00521076
-0.002650629
0.006800194
-0.003225865
0.008403086
-0.003495939
0.009921323
-0.003583326
-0.002942603
0.0145423
-0.01350267
-0.003230118
0.01520417
-0.002046966
0.01541889
-0.0005253284
0.01508576
0.001394806
0.01444055
0.003957835
0.01386817
0.009332606
0.01163513
0.0153839
0.00570101
0.01588217
-0.001789359
0.01053309
-0.006775043
0.01006216
-0.008501578
0.008036912
-0.009038949
0.001950068
-0.007415336
-0.005652847
-0.006195462
-0.004615051
-0.00608319
-0.0008828215
-0.004489226
-0.003899918
-0.0004566189
-0.01150431
0.003314342
-0.01296534
0.005999465
-0.01003861
0.008134472
-0.008058736
0.01039701
-0.00839138
0.01212079
-0.006389362
0.01269024
-0.002311489
0.01098044
0.008402127
0.003247843
0.03245958
-0.006738193
0.02911933
-0.01219619
0.001046623
-0.01530111
-0.002571816
-0.01754838
0.001745952
-0.01798897
-0.0009805295
-0.01633159
-0.007818978
-0.01235367
-0.01427904
-0.008377938
-0.01037252
-0.01121364
0.009591758
-0.02156718
0.03078749
-0.03042092
0.02771503
-0.03204267
0.01473491
-0.03158656
0.009823631
-0.03151692
0.006022482
-0.03181597
0.003008303
-0.03205131
0.001619777
-0.03216314
0.0008676509
-0.03219012
0.0004512034
-0.03213984
0.0001422273
-0.03204368
-6.530894e-05
-0.03174886
-0.0007029361
-0.03140738
-0.0008820157
-0.03103592
-0.0009883382
-0.03060261
-0.001189109
-0.03015903
-0.001234609
-0.02962962
-0.001508446
-0.02905006
-0.001676488
-0.0283812
-0.001959341
-0.02768016
-0.002062749
-0.02696909
-0.002106503
-0.02617491
-0.002369943
-0.02534976
-0.002466123
-0.0245244
-0.002475159
-0.02359441
-0.002806392
-0.0226343
-0.00290098
-0.0216356
-0.003023732
-0.02062874
-0.00305142
-0.01959841
-0.003132755
-0.01848069
-0.003398676
-0.01738522
-0.003338524
-0.01622531
-0.00353804
-0.01503546
-0.003633683
-0.01384137
-0.003646435
-0.01264195
-0.00366788
-0.01138726
-0.003838051
-0.01012892
-0.003847072
-0.008859909
-0.003878594
-0.0075714
-0.003940888
-0.006286833
-0.003918573
-0.005030475
-0.003824275
-0.003723801
-0.00398
-0.002453379
-0.003857745
-0.001221932
-0.003736909
7.28061e-05
-0.003988252
0.00150376
-0.004428332
0.002879085
-0.004232108
0.004218217
-0.004107102
0.005525212
-0.004014434
0.006802366
-0.003920992
0.008076525
-0.003911341
0.009315325
-0.003800903
0.01057495
-0.003860504
0.01179913
-0.003754177
0.01296496
-0.00356671
0.01414101
-0.003593762
0.01529792
-0.00353553
0.01641586
-0.003408754
0.01752904
-0.003389138
0.01862003
-0.003322558
0.01962243
-0.003040069
0.02062259
-0.003026569
0.02159446
-0.00294083
0.02250061
-0.002730935
0.02341076
-0.002737347
0.02423041
-0.002456432
0.02501602
-0.002340869
0.02573725
-0.002137116
0.02639053
-0.001917397
0.0270438
-0.001908987
0.02763567
-0.001715821
0.02816737
-0.001516592
0.02863186
-0.001303539
0.02903431
-0.001093983
0.02939132
-0.0009415865
0.02965552
-0.0006361762
0.02990565
-0.000557914
0.0300778
-0.0002766041
0.03007776
0.0003192737
0.02995312
0.0008082808
0.0297326
0.001350052
0.02939488
0.002380072
0.02922774
0.004539149
0.02982333
0.009260322
0.03012986
0.01424771
0.02895822
0.01275703
0.02666685
0.006492968
0.02148608
0.005346415
0.01058861
0.01154393
-0.001757254
0.0273756
-0.007337341
0.02915208
-0.008188207
0.007731263
-0.005234242
-0.01025902
-0.0002849909
-0.01720303
0.003096428
-0.0112732
0.003911346
-0.004707249
0.003866273
-0.003968463
0.004813535
-0.008935945
0.005349673
-0.007272081
0.002317262
0.008071552
-0.0003087195
0.01018623
-0.0008824681
0.002637171
-0.00129726
0.001426029
-0.002137853
0.003479967
-0.003543904
0.004330432
-0.003538662
5.055442e-05
-0.0009076777
-0.00715995
0.00216239
-0.009089852
0.003456934
-0.003682501
0.003732737
-0.0006273565
0.003431618
0.00267244
0.002063833
0.007095634
0.001283133
0.002388879
0.001964845
-0.004079775
0.002102466
-0.002986485
0.001967499
-0.00281319
0.0025257
-0.00305468
0.004140561
-0.004045189
0.006218321
-0.004728389
0.008362248
-0.005369793
0.01031111
-0.005444804
0.0120997
-0.00537191
-0.004345576
0.01769046
-0.01644115
-0.004479429
0.01849315
-0.002849649
0.01872876
-0.0007609391
0.01835638
0.001767187
0.01737852
0.00493569
0.01657317
0.01013796
0.01547754
0.01647952
0.01096131
0.02039841
0.001739949
0.01975445
-0.006118893
0.017921
-0.008979383
0.0108974
-0.01012861
0.003099298
-0.008272375
-0.007509084
-0.006532961
-0.006354466
-0.00619291
-0.001222872
-0.004543048
-0.00554978
-0.0004826036
-0.01556476
0.003007718
-0.01645566
0.005667564
-0.01269846
0.007859457
-0.01025063
0.01038651
-0.01091843
0.01241254
-0.008415392
0.01321739
-0.003116336
0.01066281
0.0109567
0.002910776
0.04021161
-0.008433901
0.040464
-0.01846805
0.01108077
-0.02447702
0.003437157
-0.02777146
0.005040395
-0.02899474
0.0002427489
-0.02880282
-0.008010894
-0.027287
-0.01579486
-0.02623084
-0.01142868
-0.0297088
0.01306972
-0.03545392
0.03653261
-0.03782238
0.03008349
-0.03723278
0.01414531
-0.03719911
0.009789965
-0.03745381
0.006277176
-0.03783039
0.003384884
-0.0380928
0.001882193
-0.03824223
0.00101708
-0.03831564
0.0005246145
-0.03827578
0.0001023658
-0.03819995
-0.0001411367
-0.03786771
-0.00103518
-0.03748491
-0.001264818
-0.03706458
-0.001408662
-0.03655666
-0.001697032
-0.03605282
-0.001738453
-0.03542942
-0.002131847
-0.03475234
-0.002353562
-0.03396017
-0.002751512
-0.03313019
-0.00289273
-0.0322917
-0.00294499
-0.0313454
-0.003316247
-0.03036257
-0.003448956
-0.02938321
-0.003454518
-0.02827454
-0.003915063
-0.0271264
-0.00404912
-0.0259329
-0.004217225
-0.02473207
-0.004252254
-0.02350271
-0.004362118
-0.02216198
-0.004739408
-0.02085522
-0.004645276
-0.01946494
-0.004928325
-0.0180421
-0.005056518
-0.01661178
-0.005076758
-0.01517733
-0.005102331
-0.013673
-0.005342377
-0.01216454
-0.005355537
-0.01064065
-0.005402485
-0.009095663
-0.005485872
-0.007550312
-0.005463924
-0.006037738
-0.005336849
-0.00445671
-0.005561028
-0.002913854
-0.0054006
-0.001419768
-0.005230995
0.000127318
-0.005535337
0.001827363
-0.006128377
0.003470455
-0.0058752
0.00507368
-0.005710326
0.006633418
-0.005574173
0.008157804
-0.005445379
0.009682166
-0.005435703
0.0111647
-0.005283435
0.01267744
-0.005373249
0.01414131
-0.005218045
0.01554122
-0.004966624
0.01695588
-0.00500842
0.01833895
-0.004918601
0.01968019
-0.004749995
0.02102053
-0.004729477
0.02232485
-0.00462688
0.02352511
-0.004240322
0.02472475
-0.004226211
0.0258865
-0.004102582
0.02696626
-0.003810698
0.02805654
-0.003827625
0.02903233
-0.003432218
0.02996717
-0.003275707
0.03082348
-0.002993433
0.03159487
-0.002688784
0.03236956
-0.002683674
0.03306315
-0.002409418
0.03368943
-0.002142872
0.03422832
-0.001842423
0.034692
-0.001557661
0.03510577
-0.001355364
0.03539227
-0.0009226681
0.03566838
-0.0008340277
0.03584497
-0.0004531951
0.03581211
0.0003521371
0.03564418
0.0009762119
0.035376
0.001618224
0.03501355
0.002742522
0.0345919
0.004960803
0.03486486
0.008987356
0.03584311
0.01326946
0.03593724
0.0126629
0.03451552
0.007914693
0.03082986
0.009032069
0.01953088
0.02284291
0.005300016
0.04160647
-0.001636683
0.03608878
-0.002178882
0.008273463
0.0006001188
-0.01303802
0.005281742
-0.02188465
0.008352853
-0.01434431
0.008759313
-0.005113709
0.00767227
-0.002881421
0.006517977
-0.007781652
0.004647298
-0.005401401
0.001152322
0.01156653
-0.0009107453
0.01224929
-0.00183408
0.003560506
-0.002886186
0.002478136
-0.004187245
0.004781026
-0.005338057
0.005481244
-0.004481401
-0.0008061019
-0.001100043
-0.01054131
0.002588017
-0.01277791
0.004320169
-0.005414653
0.004632232
-0.0009394201
0.004426107
0.002878565
0.004090564
0.007431177
0.003579769
0.002899674
0.003170281
-0.003670287
0.002198305
-0.002014509
0.001583726
-0.002198611
0.002739922
-0.004210875
0.005102511
-0.006407778
0.007714267
-0.007340145
0.01029045
-0.007945973
0.01261296
-0.007767311
0.01476508
-0.007524039
-0.006021646
0.02161574
-0.02010223
-0.005992945
0.02257716
-0.003811064
0.02284549
-0.001029273
0.02242967
0.002183005
0.02128663
0.00607873
0.01995769
0.01146691
0.01876801
0.0176692
0.01555418
0.02361225
0.006604044
0.02870459
-0.003813093
0.02833814
-0.008626522
0.01571083
-0.01066466
0.005137434
-0.008839259
-0.009334484
-0.006552626
-0.008641099
-0.00591903
-0.001856468
-0.004682631
-0.006786179
-0.001299491
-0.0189479
0.001531149
-0.0192863
0.004292932
-0.01546024
0.00677892
-0.01273662
0.00991447
-0.01405398
0.01249095
-0.01099187
0.01357788
-0.004203261
0.009923218
0.01461136
0.001372568
0.04876226
-0.01183488
0.05367145
-0.02553605
0.02478194
-0.03326263
0.01116374
-0.03723707
0.009014832
-0.03942451
0.002430195
-0.04118009
-0.006255318
-0.04298527
-0.01398968
-0.04547509
-0.008938857
-0.04776438
0.015359
-0.04696612
0.03573435
-0.0446682
0.02778557
-0.0443531
0.01383021
-0.04492597
0.01036283
-0.04528793
0.006639129
-0.04573149
0.003828444
-0.04601015
0.002160855
-0.04615405
0.001160981
-0.04620154
0.0005721082
-0.04610204
2.862402e-06
-0.04598421
-0.0002589653
-0.04556674
-0.001452652
-0.0450943
-0.00173726
-0.04456998
-0.001932978
-0.04393158
-0.002335437
-0.04332703
-0.002343
-0.04256191
-0.002896969
-0.04174408
-0.003171388
-0.04078271
-0.00371288
-0.03977604
-0.0038994
-0.03876774
-0.00395329
-0.03762276
-0.004461234
-0.03643782
-0.004633887
-0.03526459
-0.004627755
-0.03393117
-0.00524848
-0.03254562
-0.005434672
-0.03111234
-0.005650507
-0.02967061
-0.005693975
-0.02819846
-0.005834271
-0.02658202
-0.006355852
-0.02502235
-0.006204946
-0.02335075
-0.006599927
-0.02164542
-0.00676184
-0.0199315
-0.006790683
-0.0182165
-0.00681733
-0.01641507
-0.007143808
-0.01461216
-0.007158441
-0.01278247
-0.007232181
-0.01093245
-0.007335885
-0.009070714
-0.007325664
-0.007256127
-0.007151436
-0.005346735
-0.00747042
-0.003467611
-0.007279724
-0.001651672
-0.007046934
0.0002004622
-0.007387472
0.002218826
-0.008146741
0.004183465
-0.007839838
0.006091542
-0.007618404
0.007949324
-0.007431955
0.009772338
-0.007268393
0.01160017
-0.007263532
0.01337817
-0.007061437
0.01520173
-0.007196808
0.01695307
-0.006969393
0.01863835
-0.006651898
0.02034718
-0.00671725
0.02200147
-0.00657289
0.02361117
-0.006359695
0.02523526
-0.006353569
0.02679742
-0.006189042
0.02823516
-0.005678058
0.02967949
-0.005670546
0.03107544
-0.005498526
0.03236801
-0.005103273
0.03368226
-0.005141869
0.03485619
-0.004606147
0.03598176
-0.00440128
0.0370111
-0.004022777
0.03794342
-0.0036211
0.03888535
-0.003625605
0.03972
-0.003244068
0.0404878
-0.002910676
0.04114155
-0.002496167
0.04171347
-0.002129582
0.04222512
-0.001867019
0.04259057
-0.00128811
0.04293745
-0.001180916
0.04318292
-0.0006986631
0.04319678
0.0003382772
0.04302417
0.001148823
0.04273268
0.001909713
0.04233495
0.003140259
0.04183348
0.00546227
0.04170832
0.009112514
0.04211192
0.01286586
0.04187862
0.0128962
0.04021699
0.009576323
0.03816928
0.01107978
0.03061745
0.03039474
0.01753192
0.05469199
0.008437403
0.04518331
0.006297807
0.01041306
0.009223441
-0.01596365
0.01358467
-0.02624588
0.01572751
-0.01648715
0.01534002
-0.004726224
0.01291822
-0.0004596194
0.009187095
-0.004050523
0.004427524
-0.0006418307
0.000246765
0.01574729
-0.001606816
0.01410287
-0.003192042
0.005145732
-0.00510256
0.004388653
-0.00681744
0.006495906
-0.007422088
0.006085892
-0.005694868
-0.002533322
-0.001545604
-0.01469057
0.00299701
-0.01732053
0.005256627
-0.00767427
0.00570023
-0.001383022
0.005378149
0.003200646
0.005490202
0.007319124
0.005169025
0.003220851
0.003825027
-0.002326288
0.00186933
-5.881248e-05
0.001575202
-0.001904483
0.003689553
-0.006325226
0.006565685
-0.009283911
0.009627562
-0.01040202
0.01269601
-0.01101442
0.01548534
-0.01055663
0.01809877
-0.01013747
-0.008025106
0.02649869
-0.02465846
-0.007833179
0.02764256
-0.004954937
0.02794893
-0.001335642
0.02747228
0.002659656
0.02618726
0.007363752
0.02447243
0.01318173
0.0225931
0.01954853
0.01987358
0.02633177
0.01263964
0.03593852
0.0007355156
0.04024226
-0.006744236
0.02319058
-0.009853479
0.008246677
-0.008325845
-0.01086212
-0.006090281
-0.01087666
-0.005513189
-0.002433559
-0.005278472
-0.007020896
-0.003279091
-0.02094728
-0.001125415
-0.02143998
0.001958217
-0.01854387
0.004982567
-0.01576097
0.008855508
-0.01792692
0.01187677
-0.01401314
0.01286808
-0.005194565
0.007976497
0.01950294
-0.001957107
0.05869587
-0.01715533
0.06886967
-0.03278194
0.04040855
-0.04072511
0.0191069
-0.04489032
0.01318005
-0.04782759
0.005367463
-0.05091197
-0.00317094
-0.05478885
-0.0101128
-0.05927119
-0.004456517
-0.06049645
0.01658426
-0.05631608
0.03155398
-0.05301744
0.02448693
-0.05346106
0.01427383
-0.05391935
0.01082113
-0.05422762
0.006947396
-0.054699
0.004299828
-0.05500377
0.002465626
-0.05517775
0.001334956
-0.05530654
0.0007009019
-0.05516451
-0.0001391699
-0.0551048
-0.0003186739
-0.05455245
-0.002005003
-0.05401278
-0.002276929
-0.05340285
-0.002542906
-0.0526193
-0.003118992
-0.05193265
-0.003029649
-0.05100168
-0.003827939
-0.05004068
-0.004132383
-0.04888882
-0.004864749
-0.04767525
-0.005112965
-0.04647973
-0.005148812
-0.04511213
-0.005828835
-0.04369067
-0.006055345
-0.04228264
-0.006035785
-0.0406944
-0.006836718
-0.03903526
-0.007093819
-0.03731922
-0.007366545
-0.03557211
-0.007441081
-0.03383488
-0.007571505
-0.03187658
-0.008314145
-0.03002136
-0.008060173
-0.02800369
-0.008617591
-0.02596317
-0.008802364
-0.02391502
-0.008838829
-0.02183294
-0.008899414
-0.01969409
-0.009282655
-0.01754703
-0.009305508
-0.01535563
-0.009423582
-0.01315961
-0.009531904
-0.01088507
-0.0096002
-0.008735245
-0.009301262
-0.006432318
-0.009773347
-0.004138021
-0.009574021
-0.001929563
-0.009255392
0.0002984
-0.009615435
0.002692925
-0.01054127
0.005040804
-0.01018772
0.0072865
-0.009864099
0.009512814
-0.00965827
0.01171074
-0.009466318
0.01389954
-0.009452327
0.01603155
-0.009193451
0.01824589
-0.00941115
0.02034636
-0.009069862
0.02236407
-0.008669602
0.024417
-0.008770179
0.02641582
-0.008571719
0.02835063
-0.0082945
0.03028937
-0.008292309
0.03216553
-0.008065205
0.03388234
-0.007394864
0.03561146
-0.007399672
0.03726444
-0.007151502
0.0388269
-0.006665732
0.04040418
-0.006719154
0.04180106
-0.006003022
0.0431616
-0.005761824
0.04437777
-0.005238946
0.04549374
-0.004737066
0.04662748
-0.004759341
0.04760714
-0.004223728
0.04853618
-0.003839717
0.04929677
-0.003256758
0.04998095
-0.002813769
0.05059898
-0.002485044
0.05100984
-0.001698975
0.05143444
-0.001605508
0.0517147
-0.0009789261
0.05167697
0.0003760087
0.05146755
0.001358239
0.05112387
0.002253398
0.05070369
0.003560437
0.05021986
0.005946104
0.05008188
0.009250489
0.05019974
0.01274801
0.04959885
0.01349709
0.04725929
0.01191588
0.0454067
0.01293238
0.04294512
0.03285632
0.03485865
0.06277847
0.02554885
0.0544931
0.02163076
0.01433115
0.02308918
-0.01742207
0.02531801
-0.02847471
0.0253925
-0.01656164
0.02366147
-0.0029952
0.01979637
0.003405481
0.01335738
0.002388466
0.005666392
0.00704916
6.579722e-05
0.02134788
-0.002608856
0.01677753
-0.004877975
0.007414851
-0.007604671
0.007115349
-0.009547254
0.008438489
-0.009616071
0.00615471
-0.007139125
-0.005010268
-0.002149381
-0.01968032
0.003409574
-0.02287948
0.006199094
-0.01046379
0.006826453
-0.002010381
0.006199328
0.003827771
0.006154174
0.007364277
0.005791621
0.003583404
0.003674572
-0.0002092389
0.001163608
0.002452151
0.001813296
-0.00255417
0.004868761
-0.009380691
0.008377908
-0.01279306
0.01204291
-0.01406702
0.01572057
-0.01469208
0.01910433
-0.0139404
0.02228853
-0.01332167
-0.01039503
0.03250284
-0.03027401
-0.01006201
0.03380611
-0.006258215
0.03411324
-0.001642773
0.03357135
0.003201546
0.03209629
0.008838813
0.03014906
0.01512896
0.02760594
0.02209165
0.02458034
0.02935737
0.01959328
0.04092558
0.008548876
0.05128667
-0.0019062
0.03364566
-0.006578597
0.01291907
-0.005370464
-0.01207025
-0.004630825
-0.0116163
-0.00538609
-0.001678295
-0.006690434
-0.005716552
-0.006504809
-0.0211329
-0.004966418
-0.02297837
-0.001249228
-0.02226106
0.002342562
-0.01935276
0.006573631
-0.02215799
0.009259923
-0.01669943
0.009112852
-0.005047494
0.003415294
0.0252005
-0.009269242
0.0713804
-0.02560707
0.0852075
-0.04140112
0.0562026
-0.04795184
0.02565763
-0.05258442
0.01781262
-0.0562318
0.009014837
-0.05993322
0.0005304812
-0.06447969
-0.005566334
-0.06939809
0.0004618833
-0.0705654
0.01775158
-0.06653084
0.02751942
-0.06396447
0.02192057
-0.06461501
0.01492437
-0.06493812
0.01114424
-0.06529067
0.007299942
-0.0658168
0.004825959
-0.06614261
0.002791434
-0.06624839
0.001440735
-0.06644673
0.0008992498
-0.06617102
-0.0004148827
-0.06606742
-0.0004222728
-0.06547746
-0.002594961
-0.06478927
-0.002965121
-0.06412256
-0.003209618
-0.06308649
-0.004155066
-0.06231192
-0.003804216
-0.06117938
-0.004960482
-0.0600564
-0.005255363
-0.05865229
-0.006268854
-0.05716443
-0.006600823
-0.05575565
-0.006557594
-0.0541476
-0.00743688
-0.05237587
-0.007827078
-0.0506946
-0.007717054
-0.04881835
-0.008712966
-0.04684821
-0.009063958
-0.04475057
-0.009464191
-0.04263362
-0.009558032
-0.04064955
-0.009555571
-0.03821141
-0.01075229
-0.03603923
-0.01023235
-0.03354222
-0.0111146
-0.03115811
-0.01118647
-0.02869997
-0.01129697
-0.02616287
-0.01143652
-0.02364666
-0.01179886
-0.0210491
-0.01190307
-0.01841658
-0.01205611
-0.01584114
-0.01210734
-0.01305907
-0.01238227
-0.01056332
-0.01179701
-0.007743638
-0.01259303
-0.004964917
-0.01235274
-0.002278828
-0.01194148
0.0004359214
-0.01233018
0.003307101
-0.01341245
0.006016562
-0.01289718
0.008666437
-0.01251397
0.01137567
-0.0123675
0.01404964
-0.01214029
0.01668395
-0.01208663
0.01921286
-0.01172237
0.02193894
-0.01213723
0.02443921
-0.01157013
0.02686698
-0.01109737
0.0293157
-0.01121889
0.03172284