/*--------------------------------*- C++ -*----------------------------------*\
| =========                 |                                                 |
| \\      /  F ield         | OpenFOAM: The Open Source CFD Toolbox           |
|  \\    /   O peration     | Version:  2406                                  |
|   \\  /    A nd           | Website:  www.openfoam.com                      |
|    \\/     M anipulation  |                                                 |
\*---------------------------------------------------------------------------*/
FoamFile
{
    version     2.0;
    format      ascii;
    arch        "LSB;label=32;scalar=64";
    class       volVectorField;
    location    "4.74";
    object      U;
}
// * * * * * * * * * * * * * * * * * * * * * * * * * * * * * * * * * * * * * //

dimensions      [0 1 -1 0 0 0 0];

internalField   nonuniform List<vector> 
15536
(
(0.1865292 -5.311832 -5.743379e-22)
(0.3325369 -4.632303 -4.581113e-19)
(0.4080462 -3.785548 -8.783751e-19)
(0.4087178 -2.868947 -8.491607e-19)
(0.3626724 -2.021229 -1.370252e-20)
(0.2904101 -1.351602 7.277047e-21)
(0.2202999 -0.8674585 1.482374e-20)
(0.1401589 -0.5045039 -1.486732e-20)
(-0.03489121 0.006586422 3.895576e-18)
(-0.3091632 0.6943687 4.060432e-18)
(-0.538255 1.257044 0)
(-0.3673141 0.8481863 0)
(0.8410392 -1.326495 -3.444559e-20)
(1.62036 -2.517575 8.813312e-18)
(1.504584 -2.290866 4.298095e-18)
(0.9710424 -1.463608 -8.776625e-18)
(0.3675761 -0.6100999 4.803926e-18)
(-0.1741471 0.1447854 4.669708e-20)
(-0.3452962 0.3959865 -1.001904e-19)
(-1.052809 1.046416 5.235076e-20)
(-2.164798 2.001147 0)
(-2.869985 2.52386 8.215375e-18)
(-2.61435 2.2525 0)
(-0.7450071 0.7814173 5.271011e-18)
(2.657196 -1.621786 -3.196012e-20)
(3.599266 -2.238608 -1.583833e-20)
(1.517871 -0.9755578 1.610087e-20)
(-0.7733031 0.2873501 -4.03882e-18)
(-2.19482 0.9746001 -5.435e-18)
(-3.02771 1.244226 0)
(-4.309011 1.550529 -3.465349e-20)
(-6.684917 2.114622 -4.92332e-18)
(-9.188008 2.664843 7.450368e-18)
(-9.477878 2.665187 0)
(-3.647953 1.168019 -7.62212e-18)
(3.510703 -0.5056761 -2.107086e-20)
(1.469946 -0.3842701 2.822745e-18)
(-0.6239817 -0.2718592 -1.740806e-18)
(-1.873025 -0.1012073 1.728375e-21)
(4.290812 0.2555103 -4.043117e-19)
(9.249159 0.8745956 1.535122e-18)
(11.79438 1.519468 -2.433377e-20)
(13.05402 2.165667 2.38924e-20)
(13.68884 2.835873 0)
(14.01163 3.49686 -6.050776e-18)
(14.13029 4.12795 -5.99884e-18)
(14.06827 4.719373 0)
(13.88966 5.275873 -1.139769e-17)
(13.62282 5.798853 1.108214e-17)
(13.3121 6.298602 1.066743e-17)
(12.94521 6.758462 3.866383e-20)
(12.51805 7.174693 -9.614729e-18)
(12.03876 7.542328 0)
(11.51649 7.862821 0)
(10.96076 8.132532 7.651306e-18)
(10.36976 8.343803 6.966219e-18)
(9.761656 8.50726 4.563206e-20)
(9.142811 8.621036 5.380008e-18)
(8.50081 8.667078 9.295975e-18)
(7.848463 8.653579 3.85801e-18)
(7.193978 8.583692 3.012127e-18)
(6.55034 8.466146 -2.068125e-20)
(5.914638 8.291529 0)
(5.284778 8.05384 5.772819e-19)
(4.673476 7.769302 0)
(4.079225 7.423472 1.068102e-18)
(3.509303 7.02316 -2.857205e-20)
(2.973672 6.578521 -2.810248e-21)
(2.472108 6.08758 1.164106e-20)
(2.009132 5.554859 -4.028158e-18)
(1.59014 4.988243 -1.933868e-20)
(1.215968 4.385272 2.65935e-18)
(0.888241 3.74717 2.918322e-18)
(0.6121429 3.088316 0)
(0.3873777 2.414022 0)
(0.217813 1.718899 3.518258e-18)
(0.09981177 1.012774 -1.391235e-22)
(0.03699565 0.3288561 9.521362e-19)
(0.02266113 -0.3152717 1.740887e-21)
(0.06183165 -1.016916 -7.152609e-21)
(0.1521902 -1.768655 -1.768216e-18)
(0.3006449 -2.511766 0)
(0.5054461 -3.229325 3.158742e-18)
(0.7633033 -3.918484 0)
(1.072554 -4.57816 -2.635945e-18)
(1.431032 -5.206757 2.309682e-18)
(1.837726 -5.802575 1.695735e-20)
(2.289298 -6.364471 3.338266e-18)
(2.782607 -6.883438 8.66583e-21)
(3.313217 -7.357292 -1.861231e-18)
(3.87851 -7.787954 -1.051242e-18)
(4.475917 -8.16955 4.700592e-21)
(5.103146 -8.504608 6.548809e-19)
(5.75031 -8.789288 -1.52655e-18)
(6.413718 -9.018656 2.209175e-20)
(7.082523 -9.17958 6.882591e-21)
(7.761814 -9.286992 -4.117565e-18)
(8.447261 -9.341058 0)
(9.129955 -9.33364 1.152211e-17)
(9.81239 -9.275684 6.518141e-18)
(10.47471 -9.152915 1.152714e-19)
(11.11344 -8.968198 -8.218046e-18)
(11.7247 -8.724727 0)
(12.3071 -8.426699 0)
(12.85969 -8.082473 0)
(13.37379 -7.689919 0)
(13.8393 -7.250072 1.145626e-17)
(14.25294 -6.76686 1.206266e-17)
(14.61521 -6.24524 3.084949e-20)
(14.91989 -5.692535 -1.289481e-17)
(15.15216 -5.107555 -6.566761e-18)
(15.28889 -4.490954 -6.763943e-18)
(15.28543 -3.840805 5.285879e-20)
(15.11387 -3.163471 6.858929e-18)
(14.74845 -2.470508 3.516052e-18)
(14.12014 -1.78005 -2.710885e-20)
(13.0235 -1.137334 -6.442977e-21)
(10.94567 -0.5750867 4.211112e-19)
(6.721909 -0.1505896 -8.172635e-19)
(1.141872 0.04127677 -2.058822e-20)
(-2.056647 -0.4009058 1.394888e-20)
(-6.239901 -1.426719 4.194211e-18)
(-8.940531 -1.955324 3.25208e-20)
(-7.061507 -1.561712 0)
(-4.350097 -0.9565187 -4.503505e-18)
(-0.9634747 0.03880042 -2.989746e-18)
(5.98713 2.53021 -1.113613e-20)
(6.206203 2.326086 4.048761e-18)
(-5.185069 -3.104025 -1.348245e-17)
(-11.11308 -6.139706 0)
(-10.00132 -5.699689 0)
(-7.379328 -4.49515 -7.715041e-18)
(-4.797905 -3.148863 0)
(-2.821564 -1.977511 1.106376e-20)
(-1.003782 -0.6609639 -6.229999e-19)
(1.31074 1.198264 5.324666e-19)
(2.867965 2.594121 -4.009013e-21)
(2.435263 2.349407 8.961678e-19)
(1.075661 1.06636 2.561241e-22)
(-0.2205853 -0.4165733 1.798351e-18)
(-0.9431866 -1.314739 1.75422e-18)
(-0.8748843 -1.22219 2.025602e-18)
(-0.190024 -0.1703749 2.092599e-18)
(0.8089118 1.489914 0)
(1.554719 2.858651 -1.657659e-20)
(1.928625 3.737794 -4.560457e-18)
(1.539802 3.102295 0)
(0.356327 0.7813526 5.070015e-18)
(-0.04179044 0.08171131 -4.109337e-20)
(0.3332273 1.247128 2.039668e-20)
(0.2303588 0.5782305 2.182333e-18)
(-0.2332405 -0.9868577 1.125363e-21)
(-0.06165017 0.3480049 0)
(0.1603061 1.23557 7.561001e-19)
(-0.04422187 -2.430437 6.132259e-21)
(-0.08855238 -5.140854 1.85335e-21)
(0.01206038 -5.746867 -2.433194e-21)
(-0.02339477 -5.732846 -1.968064e-19)
(0.1567465 -4.962083 3.744237e-19)
(0.2714625 -4.065539 0)
(0.309656 -3.128495 6.950986e-19)
(0.318219 -2.304034 0)
(0.3012761 -1.689859 2.95254e-18)
(0.293024 -1.280245 1.213029e-20)
(0.2469037 -0.9603036 -1.214616e-20)
(0.08799685 -0.515321 -3.188349e-18)
(-0.1261162 0.03558904 -3.362906e-18)
(-0.3028538 0.6399995 0)
(0.1724765 0.07503028 2.748633e-20)
(1.80026 -2.827707 4.249852e-22)
(1.957932 -3.193233 -3.561141e-18)
(1.634501 -2.647439 -7.077427e-18)
(1.453848 -2.214686 3.508804e-18)
(1.164869 -1.653077 -3.74372e-18)
(0.7635917 -0.991258 -3.26168e-20)
(-0.04685171 -0.1042227 0)
(-1.432273 1.16996 0)
(-2.620416 2.225564 0)
(-3.286819 2.766587 6.715514e-18)
(-3.248185 2.76745 3.909029e-20)
(-2.105799 2.02481 -3.851246e-20)
(2.066624 -0.9434006 1.481407e-20)
(3.834366 -2.500487 -1.549704e-20)
(1.877267 -1.475063 0)
(0.1092899 -0.3711516 0)
(-0.7935609 0.2015117 9.185248e-18)
(-1.15988 0.3251351 4.521936e-20)
(-1.9236 0.4183018 -4.32053e-20)
(-3.996842 0.8267511 4.186811e-18)
(-6.283746 1.412741 6.330772e-18)
(-8.283044 2.24208 -5.162799e-20)
(-5.84029 1.889823 -5.676653e-18)
(1.733775 0.06448603 2.024725e-18)
(3.97157 -0.5862618 2.54721e-21)
(6.883427 -0.4647479 1.245001e-18)
(9.648093 0.1643957 0)
(14.44778 0.7404173 2.673423e-19)
(17.24606 1.149157 2.15881e-18)
(17.73691 1.56129 2.286931e-18)
(17.79398 2.109723 2.34974e-18)
(17.68037 2.740241 -7.370704e-20)
(17.48957 3.385904 4.828239e-18)
(17.23588 4.031784 -3.683544e-20)
(16.9346 4.671906 0)
(16.58345 5.287988 9.077703e-18)
(16.17984 5.880815 0)
(15.72907 6.441476 -6.410028e-20)
(15.22792 6.958395 6.42615e-20)
(14.67263 7.428351 7.673906e-18)
(14.07083 7.844848 -5.365377e-20)
(13.42953 8.207605 6.670979e-18)
(12.75637 8.513031 -6.153494e-18)
(12.05487 8.758327 0)
(11.33537 8.951829 3.605095e-20)
(10.60467 9.088868 -4.413408e-18)
(9.858495 9.156759 -7.399059e-18)
(9.101755 9.157282 0)
(8.346772 9.100532 -2.418575e-18)
(7.602387 8.987678 -1.096016e-20)
(6.869354 8.81138 1.070124e-18)
(6.148837 8.571064 6.981949e-22)
(5.446984 8.273068 -7.06717e-22)
(4.769228 7.913211 -8.667404e-19)
(4.118409 7.495488 1.509034e-18)
(3.505089 7.024988 0)
(2.930448 6.5072 0)
(2.3996 5.945917 -1.697465e-20)
(1.916671 5.342926 0)
(1.484689 4.699862 0)
(1.105542 4.019931 0)
(0.7839816 3.313994 -2.605201e-18)
(0.5185619 2.592066 2.090786e-20)
(0.3204149 1.845929 1.159463e-20)
(0.177893 1.089184 -5.651496e-21)
(0.09995957 0.3512771 -7.821382e-19)
(0.08406126 -0.351242 3.130787e-21)
(0.1427492 -1.106867 -7.600959e-19)
(0.2535638 -1.911114 1.439397e-18)
(0.4319978 -2.705293 1.09382e-20)
(0.6748262 -3.471506 -2.558054e-18)
(0.9774539 -4.208401 -3.724367e-20)
(1.338737 -4.915133 2.181183e-18)
(1.755005 -5.585434 -1.921255e-18)
(2.22667 -6.219024 0)
(2.746299 -6.815809 -5.449243e-18)
(3.31232 -7.361568 -1.435721e-20)
(3.921774 -7.85954 1.508677e-18)
(4.568951 -8.313512 8.580974e-19)
(5.251422 -8.710449 0)
(5.967281 -9.05326 0)
(6.707575 -9.346453 0)
(7.465891 -9.572729 1.730617e-20)
(8.236794 -9.729017 -1.718505e-20)
(9.019583 -9.826332 3.227478e-18)
(9.808914 -9.862941 5.542617e-21)
(10.60063 -9.835149 -4.655235e-18)
(11.38889 -9.747681 -7.965941e-20)
(12.16339 -9.595779 1.181045e-17)
(12.91605 -9.376946 6.521937e-18)
(13.6425 -9.094182 -5.291856e-20)
(14.34551 -8.753471 7.532843e-18)
(15.01994 -8.359892 6.138549e-20)
(15.65741 -7.909551 -6.921909e-20)
(16.25047 -7.407964 6.892291e-20)
(16.79542 -6.857831 7.533274e-20)
(17.29188 -6.265669 9.881506e-18)
(17.7363 -5.636067 -7.77433e-20)
(18.11235 -4.970887 0)
(18.43306 -4.279999 0)
(18.7169 -3.5763 0)
(18.9474 -2.869886 0)
(19.10147 -2.167046 2.052909e-20)
(19.15687 -1.467753 -2.045475e-20)
(19.0556 -0.8293916 1.240834e-18)
(18.66482 -0.3417036 4.700135e-21)
(16.79523 -0.04799285 0)
(11.74169 0.1233798 -1.140298e-18)
(1.944066 -0.241015 2.695012e-18)
(-6.166089 -1.201043 -3.502493e-18)
(-3.174583 -0.6202378 5.205022e-20)
(-1.191892 0.1195398 -5.782497e-18)
(0.4223445 0.541334 3.285017e-20)
(1.920948 1.238193 0)
(6.384039 2.9145 2.12347e-18)
(4.734759 1.132535 -5.999782e-18)
(-8.829933 -5.388947 -9.526927e-18)
(-10.74364 -5.726053 -6.156612e-23)
(-9.453169 -4.871732 -1.590116e-19)
(-6.933166 -3.734697 6.648809e-20)
(-4.550128 -2.640746 0)
(-2.793394 -1.722422 1.821858e-18)
(-1.300521 -0.5758076 4.881378e-19)
(0.8051536 1.191161 3.722298e-21)
(3.218651 3.174688 4.694296e-19)
(3.463572 3.30316 -7.22226e-19)
(1.04893 0.764635 -1.966993e-19)
(-0.7312379 -1.182636 5.460514e-21)
(-1.285914 -1.748984 -1.417012e-18)
(-1.166118 -1.477419 -1.202756e-20)
(-0.4753361 -0.322016 -1.689551e-18)
(0.5682227 1.438745 2.089353e-20)
(1.399536 2.878102 8.935248e-21)
(1.776476 3.698078 -2.436903e-20)
(2.127537 4.390143 0)
(1.463186 3.150613 0)
(0.9326476 2.643873 -4.185609e-18)
(0.8535099 2.767304 0)
(0.6791874 1.878351 -3.451135e-18)
(0.1424825 0.6381678 1.17605e-18)
(0.01647266 0.6218828 -9.139814e-21)
(0.01357178 -1.892141 8.424623e-21)
(-0.2284906 -5.810376 6.402521e-19)
(-0.3175995 -6.774917 -3.739127e-19)
(-0.2188729 -6.211565 -1.944609e-19)
(0.008765678 -5.624056 1.583574e-19)
(0.1301716 -4.846386 -3.048667e-19)
(0.2057453 -3.929058 8.94311e-21)
(0.2142988 -2.965177 -5.792577e-19)
(0.2252155 -2.120912 0)
(0.2212141 -1.536369 -2.434778e-18)
(0.253567 -1.232057 -2.003867e-20)
(0.2512342 -1.064563 1.312268e-18)
(0.1499615 -0.8407111 2.606281e-18)
(0.08379795 -0.6256847 2.754073e-18)
(0.232071 -0.4231363 2.992457e-18)
(1.087072 -1.298697 -2.150554e-20)
(2.205791 -3.294886 0)
(1.86484 -3.006889 0)
(1.667697 -2.732753 2.856016e-18)
(1.438208 -2.299491 2.89842e-18)
(1.105837 -1.756536 3.104119e-18)
(0.5773005 -0.9965827 5.322176e-20)
(-0.4509467 0.06947336 0)
(-1.879702 1.353613 4.66031e-18)
(-2.907452 2.333747 5.210899e-18)
(-3.376553 2.842797 -5.525926e-18)
(-3.119841 2.799811 0)
(-2.272667 2.480688 3.29642e-18)
(0.7113098 0.3864054 0)
(2.980021 -1.909672 -1.228306e-18)
(2.063393 -1.743958 0)
(1.631228 -1.218341 -2.673195e-18)
(1.709785 -0.9122963 -7.357616e-18)
(1.957317 -0.9223152 0)
(1.165131 -0.8380801 0)
(-0.8157416 -0.4658241 7.06299e-21)
(-2.944402 0.3242449 -5.45595e-18)
(-3.945884 1.390633 6.569846e-18)
(-4.198287 1.954015 9.482236e-18)
(3.024236 0.3591948 -1.496718e-18)
(11.0952 -0.7463718 1.566213e-18)
(14.69351 -0.447106 -8.978943e-19)
(16.51584 0.3489415 0)
(17.69986 1.071758 0)
(17.59088 1.447238 -1.75969e-18)
(17.29398 1.941677 -1.914244e-18)
(17.25491 2.587657 -3.842513e-18)
(17.15356 3.255747 3.853268e-18)
(17.00334 3.931365 9.123855e-20)
(16.78772 4.584891 -6.084961e-20)
(16.50756 5.211261 0)
(16.15497 5.800562 0)
(15.74636 6.360378 7.112241e-18)
(15.29381 6.891391 -6.854353e-18)
(14.79354 7.375872 0)
(14.24203 7.812619 0)
(13.64742 8.194729 8.80181e-20)
(13.01493 8.524898 -5.560923e-18)
(12.3536 8.797172 0)
(11.66717 9.008447 -4.462796e-18)
(10.96375 9.170546 -3.987207e-18)
(10.25197 9.277158 -3.445783e-18)
(9.528472 9.313978 2.97338e-18)
(8.794397 9.286184 -3.428002e-20)
(8.063033 9.204393 1.933338e-18)
(7.342989 9.068994 0)
(6.636759 8.870974 -8.722594e-19)
(5.944687 8.610666 -7.745142e-22)
(5.270612 8.295855 8.312435e-21)
(4.625102 7.918757 -7.753543e-19)
(4.003248 7.488391 0)
(3.418167 7.007691 -1.793115e-18)
(2.869901 6.482709 -1.9296e-20)
(2.365797 5.916141 2.72431e-18)
(1.906833 5.310785 1.57824e-18)
(1.497172 4.667312 -1.77514e-18)
(1.137322 3.98905 -1.958699e-18)
(0.8317238 3.286174 2.118531e-18)
(0.5774771 2.5693 -2.267114e-18)
(0.3916933 1.828088 -1.162498e-18)
(0.2512783 1.077997 2.452118e-18)
(0.171165 0.3467715 1.278755e-18)
(0.1539801 -0.3550023 2.572628e-21)
(0.2220762 -1.105902 6.291417e-19)
(0.3273864 -1.903718 -9.3846e-21)
(0.4966493 -2.690586 0)
(0.7263502 -3.450852 -1.599745e-20)
(1.011119 -4.183814 -1.358034e-20)
(1.351964 -4.888032 -1.727151e-18)
(1.743609 -5.5578 3.15546e-18)
(2.192061 -6.191565 -1.37144e-18)
(2.683452 -6.79209 2.211151e-18)
(3.218869 -7.34398 1.56334e-20)
(3.799766 -7.849391 0)
(4.415783 -8.314788 7.553538e-19)
(5.066555 -8.725407 -1.307533e-21)
(5.752915 -9.083087 3.364631e-19)
(6.463501 -9.394822 0)
(7.191122 -9.642752 1.474973e-18)
(7.934567 -9.821499 0)
(8.690589 -9.944407 -5.395127e-20)
(9.453201 -10.0096 3.151852e-18)
(10.22225 -10.01038 0)
(10.98739 -9.955598 -4.3073e-18)
(11.74108 -9.838229 -4.843524e-18)
(12.47536 -9.655087 -5.347164e-18)
(13.18549 -9.40844 0)
(13.8761 -9.102849 -1.258347e-17)
(14.54018 -8.746074 1.007712e-19)
(15.17021 -8.331801 0)
(15.7585 -7.866834 0)
(16.30151 -7.352009 0)
(16.79945 -6.793546 8.002568e-18)
(17.2446 -6.20215 -8.269072e-18)
(17.62919 -5.572655 0)
(17.94654 -4.908029 0)
(18.19977 -4.215897 4.311246e-18)
(18.39231 -3.500517 3.431923e-20)
(18.51286 -2.770491 0)
(18.55563 -2.037265 0)
(18.53356 -1.321721 -2.068259e-18)
(18.56622 -0.7050545 2.395637e-19)
(18.79251 -0.3033906 0)
(17.93656 -0.0860012 7.963889e-19)
(11.31505 -0.1730343 5.286773e-20)
(2.558478 -0.2314828 1.22014e-20)
(3.58102 1.056579 -4.7513e-20)
(6.025605 2.095999 4.250567e-18)
(6.832232 2.415194 2.809557e-18)
(6.794978 2.793095 3.596058e-20)
(6.518197 2.863586 1.78928e-20)
(1.77618 -0.9175261 2.293765e-18)
(-8.44088 -6.00842 7.466408e-18)
(-8.73083 -4.893009 0)
(-8.140229 -3.92308 8.743526e-18)
(-5.808854 -2.706746 0)
(-3.638728 -1.77436 -3.294592e-20)
(-2.225914 -1.140792 -1.472258e-18)
(-1.259182 -0.2758284 6.832095e-22)
(0.2319512 1.117206 -6.627041e-22)
(2.769882 2.93866 -3.881187e-19)
(3.235633 2.842077 2.962463e-19)
(0.5772874 -0.1725281 1.565538e-19)
(-0.9294476 -1.69178 -5.965153e-19)
(-1.508163 -2.126159 -1.16965e-18)
(-1.429944 -1.728121 0)
(-0.7657623 -0.4233186 -8.473705e-21)
(0.3603301 1.474838 0)
(1.26167 2.82708 -2.549914e-18)
(1.592258 3.39417 3.09866e-18)
(1.961425 4.032813 0)
(1.857284 4.030295 0)
(1.452751 4.057912 6.744922e-18)
(1.312693 4.000549 -1.682669e-18)
(1.095217 2.779789 2.746844e-18)
(0.4214066 1.383004 -7.009337e-21)
(-0.009562489 -0.9231035 6.911557e-21)
(-0.02681381 -4.618631 0)
(-0.1400787 -6.729353 -5.092643e-19)
(-0.2004203 -6.394057 6.083379e-19)
(-0.1212723 -6.141382 1.622693e-19)
(-0.1122446 -5.667754 -2.592707e-19)
(0.006659478 -4.887417 -7.570843e-21)
(0.08186598 -3.947668 7.664621e-21)
(0.08542156 -2.935869 -1.455115e-20)
(0.1126538 -2.006328 1.501974e-20)
(0.1202533 -1.336845 1.004654e-18)
(0.1793318 -1.019206 -1.661245e-20)
(0.2222798 -0.9793367 -1.08782e-18)
(0.2123383 -1.036685 3.339511e-20)
(0.3862066 -1.316765 -2.212205e-18)
(0.921563 -1.676837 -4.605269e-20)
(1.813602 -2.360761 0)
(2.252479 -3.26252 0)
(1.725703 -2.876693 -2.463371e-18)
(1.501395 -2.577428 -2.395144e-18)
(1.107585 -1.96936 -4.794679e-18)
(0.6459093 -1.3342 -2.572456e-18)
(0.0680526 -0.6222582 0)
(-0.9998695 0.3549803 0)
(-2.28296 1.462047 -7.531641e-18)
(-3.091924 2.335962 -8.531461e-18)
(-3.347114 2.80457 6.776916e-20)
(-2.929514 2.767613 -1.198413e-19)
(-1.912548 2.525473 -5.368424e-18)
(-0.002395645 1.326288 -1.548051e-18)
(2.171355 -1.191528 1.021543e-18)
(2.66527 -2.060263 1.2073e-18)
(3.63824 -2.167691 2.076057e-18)
(4.392896 -2.050854 2.96352e-18)
(4.807044 -2.109417 0)
(4.143604 -2.138659 -7.418221e-20)
(2.64389 -1.906206 -5.584429e-18)
(0.8975077 -0.9658257 3.892017e-20)
(0.02634287 0.4255537 1.041469e-19)
(-0.6758704 1.679398 -3.86e-18)
(7.491165 0.5531873 -1.089236e-18)
(15.76688 -0.633604 -1.238971e-20)
(17.34005 -0.5174245 -6.771808e-19)
(17.72483 0.1879797 -3.446833e-19)
(17.49614 0.8500565 -2.71741e-21)
(17.18438 1.126918 0)
(17.29634 1.554826 -2.428541e-20)
(17.36851 2.135133 1.617297e-18)
(17.3294 2.761168 -6.372834e-18)
(17.20336 3.425784 4.929945e-20)
(17.00149 4.074219 -3.171117e-18)
(16.72187 4.710307 -9.523635e-20)
(16.37529 5.307352 -5.972825e-18)
(15.96946 5.881503 -2.693988e-21)
(15.51874 6.432564 5.654941e-18)
(15.02155 6.934649 -5.304465e-18)
(14.47204 7.392391 0)
(13.87857 7.795197 7.115549e-20)
(13.24508 8.148879 -7.159423e-20)
(12.58104 8.445725 0)
(11.88995 8.682469 3.676895e-18)
(11.18067 8.869915 6.957694e-20)
(10.4619 9.001746 2.880451e-18)
(9.731539 9.06243 -2.385485e-18)
(8.991831 9.055239 -1.951176e-18)
(8.251241 8.995579 -1.56257e-18)
(7.522827 8.880748 -1.083937e-18)
(6.808677 8.701614 6.878266e-21)
(6.10727 8.459651 -6.947807e-21)
(5.423223 8.162905 0)
(4.768407 7.802169 6.308957e-19)
(4.136669 7.387337 -1.982344e-20)
(3.542661 6.920565 1.492739e-18)
(2.986068 6.408247 1.847151e-18)
(2.476258 5.852522 -2.211949e-18)
(2.011392 5.257436 -1.294976e-18)
(1.596697 4.623501 -3.673343e-21)
(1.232227 3.954338 1.606145e-18)
(0.9248318 3.259272 2.784659e-20)
(0.6669108 2.550301 1.815648e-18)
(0.4825752 1.814394 1.529193e-20)
(0.3399044 1.068885 -1.023923e-18)
(0.2567403 0.3428472 -5.207398e-19)
(0.2379181 -0.3615605 -6.389894e-23)
(0.3174498 -1.108781 4.991143e-19)
(0.4234812 -1.899949 7.683917e-21)
(0.5928849 -2.679438 -9.228912e-19)
(0.8253606 -3.432057 1.735545e-18)
(1.113419 -4.156038 0)
(1.458074 -4.84966 -3.913875e-21)
(1.853554 -5.507621 -1.298046e-18)
(2.308497 -6.128586 1.155252e-18)
(2.804746 -6.716748 -1.907795e-18)
(3.349768 -7.253371 1.9988e-20)
(3.941905 -7.742974 -1.979608e-20)
(4.564526 -8.194411 -6.207266e-19)
(5.225466 -8.587744 0)
(5.9262 -8.925562 -2.83239e-19)
(6.644406 -9.220944 2.257342e-20)
(7.380991 -9.449613 -6.398185e-20)
(8.135151 -9.606979 -1.589359e-18)
(8.900246 -9.708744 -2.155512e-18)
(9.671384 -9.75149 -2.006436e-20)
(10.44829 -9.728738 2.975247e-18)
(11.22231 -9.648148 -5.02594e-20)
(11.98239 -9.505631 -3.853823e-18)
(12.72249 -9.295576 0)
(13.4395 -9.019524 4.654851e-18)
(14.1338 -8.68774 5.109172e-18)
(14.79778 -8.308387 5.281322e-18)
(15.42713 -7.87037 -5.606272e-18)
(16.01324 -7.383353 5.990932e-18)
(16.55371 -6.846598 0)
(17.04887 -6.267018 -1.309499e-17)
(17.49025 -5.659747 1.364446e-17)
(17.87002 -5.014 -1.612953e-19)
(18.18332 -4.337544 -3.48876e-18)
(18.43185 -3.633652 -3.53626e-18)
(18.60624 -2.926009 0)
(18.6961 -2.214812 1.799825e-18)
(18.68527 -1.519894 -1.769189e-18)
(18.56042 -0.875809 8.589094e-19)
(18.34381 -0.3533256 -2.066483e-19)
(18.23424 -0.07060656 -3.740576e-19)
(19.05964 -0.08090557 1.042021e-20)
(17.63623 -0.1331543 -1.358331e-18)
(13.562 0.6337853 3.700829e-20)
(12.95714 2.524129 0)
(13.10306 3.689537 0)
(12.4936 3.87093 -5.533991e-20)
(11.20898 3.873005 5.805881e-20)
(7.824695 2.796497 0)
(0.4072055 -2.480189 0)
(-6.313066 -5.809801 0)
(-7.273345 -4.137493 1.02203e-17)
(-6.749736 -2.818468 -1.456404e-17)
(-4.624946 -1.567435 4.29588e-18)
(-2.485004 -0.7177048 -2.281103e-18)
(-1.320072 -0.3566308 -4.191182e-20)
(-0.8946658 0.2079768 3.797983e-19)
(-0.2694102 1.076859 -2.344831e-19)
(1.981025 2.439997 -4.485972e-21)
(2.464438 1.746187 1.602046e-21)
(0.1573076 -1.110627 2.690895e-21)
(-1.021714 -2.063301 -1.116989e-20)
(-1.63042 -2.325743 9.842332e-19)
(-1.602977 -1.770953 0)
(-1.018357 -0.3359327 1.104586e-18)
(0.1397654 1.604338 -1.467297e-18)
(1.157873 2.903946 2.106489e-18)
(1.570043 3.465689 0)
(1.737788 3.616539 0)
(1.734852 3.867363 -4.213963e-20)
(1.421353 4.090515 -2.77684e-18)
(1.413556 4.069995 1.417197e-18)
(1.37726 3.015565 -1.110301e-18)
(0.6894741 1.421048 0)
(0.07514135 -2.750058 0)
(0.0687979 -5.98826 0)
(-0.09942793 -6.575149 -4.201617e-19)
(-0.293849 -6.321028 -2.608945e-19)
(-0.2422948 -6.213109 -2.666847e-19)
(-0.1975514 -5.783783 1.0594e-19)
(-0.1046085 -5.002954 0)
(-0.04220979 -4.062694 -3.901889e-19)
(-0.0521915 -3.024466 0)
(-0.002684349 -2.028821 -7.866085e-19)
(0.02110757 -1.249179 0)
(0.1076081 -0.8074159 0)
(0.2032872 -0.8225152 -8.903341e-19)
(0.2957385 -1.124558 -1.779848e-18)
(0.6813354 -1.799225 1.853958e-18)
(1.421865 -2.460783 -1.891131e-18)
(2.170781 -2.867412 1.826935e-18)
(2.155052 -3.106618 0)
(1.666279 -2.883207 4.064686e-18)
(1.324142 -2.473444 1.970293e-18)
(0.7298808 -1.674187 2.037452e-18)
(0.05858652 -0.8020185 -6.433348e-20)
(-0.5876211 -0.06496957 -8.254591e-20)
(-1.558978 0.6813831 -2.652524e-18)
(-2.605775 1.512616 6.155702e-18)
(-3.189017 2.26907 3.510438e-18)
(-3.239098 2.728476 1.132581e-19)
(-2.645673 2.713262 3.228769e-18)
(-1.43061 2.447093 2.252716e-18)
(0.05201586 1.717671 1.267236e-18)
(1.888446 -0.6363055 0)
(3.739263 -2.41566 -2.897079e-20)
(5.808398 -3.041742 0)
(7.034465 -3.073914 2.217981e-18)
(7.607226 -3.234186 2.598341e-18)
(7.259466 -3.440741 3.075047e-18)
(6.372527 -3.409772 -1.411493e-19)
(5.114466 -2.471412 8.999682e-20)
(3.714934 -0.5810898 -9.083618e-18)
(4.953227 1.232855 0)
(12.5523 0.8073511 -8.546683e-19)
(17.28346 -0.3205674 -9.018192e-19)
(16.88502 -0.4421901 1.113477e-18)
(17.12222 0.2204131 2.750329e-19)
(16.96602 0.9211569 0)
(16.92993 1.360719 6.003673e-19)
(17.04785 1.900723 0)
(17.08145 2.516672 0)
(17.03007 3.151251 2.662117e-18)
(16.90091 3.804352 -4.060769e-20)
(16.70079 4.433802 4.521592e-20)
(16.4253 5.045561 -2.499453e-18)
(16.08464 5.612233 5.016002e-18)
(15.68492 6.155905 -4.772806e-18)
(15.24355 6.677285 -4.586921e-18)
(14.76194 7.139351 2.124207e-19)
(14.22595 7.564245 -1.323564e-19)
(13.64963 7.932163 -1.155206e-19)
(13.03271 8.256277 -3.308178e-18)
(12.38744 8.525544 -3.339992e-18)
(11.71572 8.735256 -8.660118e-20)
(11.02372 8.90174 2.73628e-18)
(10.32686 9.012236 0)
(9.619744 9.052074 1.964192e-18)
(8.897697 9.030675 1.606113e-18)
(8.175713 8.958808 1.196978e-18)
(7.468247 8.833123 8.917915e-19)
(6.77391 8.645786 0)
(6.092425 8.396072 0)
(5.425038 8.096498 -2.170932e-19)
(4.789373 7.732367 0)
(4.171396 7.3184 0)
(3.59271 6.853348 1.288375e-18)
(3.052022 6.343609 -2.879727e-20)
(2.55124 5.79389 -1.214879e-20)
(2.093582 5.204802 -3.521957e-20)
(1.686652 4.577087 2.433243e-18)
(1.330764 3.914255 0)
(1.033193 3.225648 0)
(0.7715701 2.52822 1.535185e-18)
(0.5926917 1.799055 7.674011e-19)
(0.4470084 1.057715 8.250415e-19)
(0.359974 0.3375694 -4.259518e-19)
(0.3398984 -0.3703281 0)
(0.4353358 -1.110483 -2.989015e-22)
(0.5428569 -1.894066 2.444147e-20)
(0.7022304 -2.666469 7.318906e-19)
(0.9271484 -3.408927 -1.422267e-18)
(1.209291 -4.120635 -3.974163e-20)
(1.5478 -4.802309 1.20571e-18)
(1.936306 -5.449482 3.532664e-20)
(2.384193 -6.061633 1.86768e-18)
(2.865336 -6.645191 -1.542268e-20)
(3.395566 -7.177691 -1.275702e-18)
(3.97739 -7.664606 3.315446e-20)
(4.584152 -8.117303 0)
(5.223461 -8.514108 2.049533e-19)
(5.908942 -8.855173 0)
(6.611957 -9.156351 0)
(7.325747 -9.395436 -9.58063e-19)
(8.059798 -9.562953 2.614338e-18)
(8.80733 -9.676109 5.849723e-20)
(9.557384 -9.734137 -1.152181e-19)
(10.31383 -9.728124 -2.443955e-18)
(11.06678 -9.66866 -2.751989e-18)
(11.80627 -9.548858 3.279785e-18)
(12.52461 -9.365673 -3.543614e-18)
(13.21951 -9.119665 -7.747804e-20)
(13.89643 -8.815528 0)
(14.54267 -8.468563 -4.572041e-18)
(15.15648 -8.062626 9.603259e-18)
(15.72796 -7.611491 -5.097199e-18)
(16.2547 -7.111812 0)
(16.74007 -6.568307 9.523983e-20)
(17.17311 -5.996138 -5.466345e-18)
(17.54648 -5.382584 -8.714211e-20)
(17.85626 -4.734891 1.405166e-19)
(18.10127 -4.057443 -9.049095e-20)
(18.27779 -3.363783 0)
(18.37115 -2.669551 -2.868978e-18)
(18.37351 -1.969693 1.37701e-18)
(18.27273 -1.293227 6.75653e-19)
(18.10754 -0.6956944 -1.046732e-20)
(17.84263 -0.2468238 3.062454e-19)
(18.25582 -0.1262544 5.580057e-19)
(19.21029 -0.02063504 0)
(18.9163 1.263999 1.429516e-18)
(18.25986 3.429708 -8.827097e-20)
(16.96306 4.534528 2.449128e-18)
(15.37081 4.541989 0)
(13.72617 4.220494 0)
(9.446647 2.461609 0)
(0.7924772 -3.396489 5.508755e-20)
(-3.546757 -5.187121 5.727171e-18)
(-5.327106 -3.220488 -9.164577e-18)
(-4.992594 -1.471918 6.390195e-18)
(-3.29473 -0.3214374 -7.04846e-18)
(-1.25602 0.3712965 1.941777e-18)
(-0.2347416 0.5292 0)
(-0.2287683 0.7905688 -3.070035e-19)
(-0.5573659 1.062845 1.945808e-19)
(1.071635 1.690852 -3.216827e-19)
(1.507983 0.3874383 7.52338e-21)
(-0.03894912 -1.760076 -5.405499e-21)
(-1.012974 -2.280044 5.590021e-21)
(-1.625409 -2.349856 0)
(-1.735269 -1.691705 -9.247465e-19)
(-1.290223 -0.2187075 3.318065e-20)
(-0.2159796 1.628717 2.372799e-18)
(0.9486972 2.884534 -1.78245e-18)
(1.527748 3.488502 1.285718e-19)
(1.661835 3.46124 -2.309741e-18)
(1.522468 3.469145 0)
(1.257864 3.775159 -2.289041e-18)
(1.424709 3.819497 1.191064e-18)
(1.599325 2.860287 -5.467159e-20)
(0.9698002 0.7624131 6.275248e-19)
(0.3114316 -4.276493 -2.503619e-20)
(0.2325199 -6.417379 8.288288e-21)
(-0.06159177 -6.411372 3.559311e-19)
(-0.2701373 -6.506268 -3.343393e-21)
(-0.2523193 -6.3118 3.501288e-21)
(-0.3022917 -5.908327 5.274056e-21)
(-0.2378826 -5.144242 1.598965e-19)
(-0.1874069 -4.228399 3.181078e-19)
(-0.2086394 -3.181282 -3.103354e-19)
(-0.1369998 -2.138777 6.412469e-19)
(-0.08877472 -1.29268 0)
(0.03574305 -0.677658 6.742822e-19)
(0.1983497 -0.6150285 7.827951e-19)
(0.3921992 -1.075716 1.471559e-18)
(0.9064928 -1.946938 0)
(1.66441 -2.701693 0)
(2.246942 -2.946337 -1.512233e-18)
(2.054763 -3.003637 -5.022407e-20)
(1.650719 -2.98381 -1.613282e-18)
(1.226384 -2.57987 -1.608027e-18)
(0.5170034 -1.739091 -1.602329e-18)
(-0.3214217 -0.672991 1.727497e-18)
(-1.107817 0.2747174 -1.911682e-18)
(-1.965186 0.85043 2.079256e-18)
(-2.815237 1.454735 -2.453416e-18)
(-3.238716 2.173497 0)
(-3.139458 2.685357 0)
(-2.359091 2.722202 -2.738317e-18)
(-0.9269726 2.384853 0)
(0.5882113 1.762737 -2.50853e-20)
(2.269288 -0.3370947 5.573449e-21)
(5.239659 -2.712487 -7.298867e-19)
(7.883187 -3.693616 -3.214866e-20)
(9.301029 -3.879446 -1.820873e-20)
(10.02117 -4.159067 -2.055999e-18)
(10.09209 -4.529936 1.549974e-20)
(10.0637 -4.765055 1.658083e-18)
(10.00989 -3.95735 -9.030487e-20)
(9.803251 -1.60433 3.526413e-18)
(11.60975 0.7912405 -7.681246e-20)
(16.0975 0.9891271 2.704698e-18)
(16.91805 -0.09448835 2.34081e-20)
(16.29481 -0.386211 -6.920927e-21)
(16.8646 0.2188419 -4.658657e-19)
(16.87722 0.7949152 -3.717967e-21)
(16.96225 1.175128 -4.975365e-19)
(17.07236 1.651167 -3.224053e-20)
(17.11495 2.214322 -1.004577e-18)
(17.06393 2.812116 2.080562e-18)
(16.93167 3.459083 -2.075951e-18)
(16.73525 4.076226 4.00826e-18)
(16.46137 4.703738 2.188011e-18)
(16.1226 5.285546 0)
(15.72126 5.84783 0)
(15.2801 6.390483 3.719714e-18)
(14.79906 6.871444 3.541524e-18)
(14.26313 7.313939 0)
(13.68951 7.693059 -9.283011e-20)
(13.0726 8.030924 3.000142e-18)
(12.42462 8.318773 2.661246e-18)
(11.75403 8.539518 2.324447e-18)
(11.06816 8.710869 -6.118978e-20)
(10.37349 8.833028 -1.741747e-18)
(9.663865 8.88822 4.349318e-20)
(8.946643 8.872155 -4.390923e-20)
(8.233285 8.803325 -1.009326e-18)
(7.529023 8.686441 6.81662e-19)
(6.831151 8.51378 0)
(6.157935 8.267856 0)
(5.493384 7.977818 3.745978e-19)
(4.866861 7.619088 -8.688476e-21)
(4.253553 7.213301 -8.319909e-21)
(3.69072 6.752086 -9.934804e-19)
(3.158944 6.249018 -2.526647e-18)
(2.651759 5.715885 1.424893e-18)
(2.197078 5.1388 -1.712332e-18)
(1.794839 4.521729 -9.516108e-19)
(1.44761 3.867599 -3.251411e-20)
(1.158341 3.183778 0)
(0.8910299 2.501192 -1.198083e-18)
(0.7264153 1.782545 -4.03634e-20)
(0.575372 1.044899 -6.857259e-19)
(0.4851026 0.330992 3.647637e-19)
(0.4658049 -0.3809137 -1.736706e-23)
(0.5769054 -1.110648 -3.549695e-19)
(0.6767278 -1.888863 3.026916e-20)
(0.8304838 -2.649876 -6.380344e-19)
(1.046346 -3.373288 1.166001e-18)
(1.321953 -4.067699 -1.119672e-18)
(1.655849 -4.736162 2.789927e-21)
(2.040267 -5.3716 9.146145e-19)
(2.492532 -5.97216 -1.487218e-18)
(2.964748 -6.55009 1.268718e-18)
(3.484048 -7.07709 9.553866e-19)
(4.066642 -7.555454 8.4459e-21)
(4.680947 -7.996131 8.869499e-21)
(5.313015 -8.386093 -1.581108e-19)
(5.982215 -8.728338 -9.359572e-20)
(6.685156 -9.021348 1.807699e-20)
(7.39807 -9.250358 6.902274e-19)
(8.124358 -9.411717 -2.096699e-18)
(8.864121 -9.521192 1.339261e-18)
(9.619129 -9.561863 -5.813203e-20)
(10.37305 -9.545934 -1.962768e-18)
(11.11858 -9.482351 4.527668e-18)
(11.85834 -9.349134 8.322293e-20)
(12.57387 -9.155376 2.748701e-18)
(13.2692 -8.893034 -3.196362e-18)
(13.94808 -8.571925 9.898059e-20)
(14.59314 -8.211787 -3.608447e-18)
(15.20735 -7.787254 -3.684707e-18)
(15.77783 -7.320097 1.264114e-19)
(16.30571 -6.797144 -4.213198e-18)
(16.79133 -6.231724 4.343496e-18)
(17.22386 -5.640348 0)
(17.59502 -5.009643 0)
(17.90071 -4.345724 2.336821e-18)
(18.14188 -3.66618 2.324672e-18)
(18.3176 -2.980806 0)
(18.41212 -2.295877 1.227592e-18)
(18.41244 -1.624833 1.110825e-18)
(18.30922 -1.004131 -5.664618e-19)
(18.13309 -0.4847829 1.284417e-19)
(17.92046 -0.1126492 2.546632e-19)