/*--------------------------------*- C++ -*----------------------------------*\
| =========                 |                                                 |
| \\      /  F ield         | OpenFOAM: The Open Source CFD Toolbox           |
|  \\    /   O peration     | Version:  2406                                  |
|   \\  /    A nd           | Website:  www.openfoam.com                      |
|    \\/     M anipulation  |                                                 |
\*---------------------------------------------------------------------------*/
FoamFile
{
    version     2.0;
    format      ascii;
    arch        "LSB;label=32;scalar=64";
    class       volScalarField;
    location    "0.24";
    object      p;
}
// * * * * * * * * * * * * * * * * * * * * * * * * * * * * * * * * * * * * * //

dimensions      [0 2 -2 0 0 0 0];

internalField   nonuniform List<scalar> 
4529
(
-1.023616e-06
-2.502318e-06
-1.802249e-06
-5.325596e-06
-3.077944e-06
-6.557121e-06
-1.74069e-06
-2.130121e-06
-2.903478e-06
-1.494353e-06
2.435148e-06
-9.125557e-07
-4.705784e-07
-7.730885e-07
-1.317124e-06
-6.495929e-07
-3.054562e-06
-1.167923e-06
3.250307e-07
-2.095114e-06
-8.772183e-08
-1.208425e-06
-1.16578e-06
-1.97297e-06
-1.046588e-07
-2.18686e-06
-3.489775e-06
-3.742603e-06
-3.54532e-06
-4.587411e-06
-1.723158e-07
-1.274795e-06
-7.731123e-07
1.835967e-07
1.876516e-06
-2.26679e-06
-1.898496e-06
-1.522848e-06
-4.398709e-06
3.249026e-07
-1.161383e-06
-7.198232e-07
-1.562371e-06
-1.842702e-08
1.035135e-07
9.886245e-07
-1.441125e-06
-2.291046e-06
3.213168e-07
-2.736011e-06
-5.827626e-06
-1.693856e-06
-6.888075e-06
3.429898e-07
-3.059406e-06
-3.079862e-06
-2.693862e-06
3.500171e-06
-6.321008e-06
-7.583717e-06
-2.920103e-06
8.157794e-07
-6.24398e-07
-7.507419e-06
-1.89337e-06
5.894016e-07
-1.225618e-06
-1.169798e-06
-1.873504e-06
3.462728e-06
-1.878021e-06
-2.48209e-06
-4.059723e-06
-6.950605e-07
-8.499006e-06
-5.326224e-06
6.681957e-07
1.656082e-06
-6.809127e-06
-2.637598e-06
-3.896047e-06
-1.716518e-06
5.781324e-07
-1.774957e-06
-2.378981e-06
-7.781319e-07
1.362552e-07
9.034156e-07
1.000523e-06
-1.373919e-06
-7.45756e-06
-8.742941e-07
4.819959e-07
-1.568725e-06
-1.061966e-06
-8.494106e-07
-5.687277e-06
-3.595503e-06
-4.92194e-06
-2.845541e-06
-8.913811e-07
-4.804597e-06
-2.351572e-06
-3.199072e-06
-1.308765e-06
1.092681e-06
-5.80101e-06
1.31973e-06
1.26821e-06
-2.92451e-07
-2.073151e-07
-1.36145e-06
-4.678502e-06
-4.177311e-06
-4.180883e-06
-1.115782e-06
-1.560493e-06
-2.926372e-06
-1.663506e-06
-4.675288e-07
-2.448046e-06
-2.037408e-06
-3.019301e-07
-1.375233e-06
-1.167656e-06
-3.013416e-06
-2.90511e-06
6.337626e-07
-1.208626e-06
-4.495604e-06
-1.858305e-06
-3.412034e-06
-8.387717e-06
7.657968e-08
3.170095e-07
4.783457e-07
7.024697e-07
-1.608129e-07
-1.073767e-06
-2.377933e-06
-2.939562e-06
-2.027421e-06
-9.547601e-07
-3.540103e-06
-5.287454e-06
-2.795425e-06
-2.084116e-07
-3.78445e-06
-2.531064e-06
-1.871809e-06
-2.163055e-06
-3.985202e-06
-3.367797e-06
-7.850205e-07
-4.069856e-06
-5.9264e-07
-1.045591e-08
-2.779965e-06
-1.147783e-06
-1.785569e-06
2.170215e-06
-3.204158e-07
-5.031576e-06
-3.119982e-06
-5.391981e-08
1.134013e-07
-6.453596e-08
-2.252988e-06
-2.646971e-06
-2.144255e-06
-5.967946e-06
-1.608806e-06
-8.60282e-06
4.264764e-07
6.356641e-07
-3.118079e-06
-1.758344e-06
-7.624535e-06
-8.693763e-06
2.081069e-06
4.979498e-07
-2.584099e-06
-1.881883e-06
-1.77956e-06
3.442076e-06
-9.069588e-06
-2.251276e-06
-5.468738e-07
-5.016826e-06
-5.99728e-07
-2.232741e-06
-7.161957e-06
1.141306e-06
-3.841085e-06
-1.885796e-06
1.263187e-06
3.344998e-07
-5.009512e-06
2.941509e-06
-4.053278e-08
-1.534552e-06
1.705013e-06
-1.504762e-06
-7.011511e-06
-1.061401e-06
-2.283755e-06
-5.375598e-06
-2.457391e-06
-3.02873e-06
-7.502667e-06
2.104761e-07
-3.205075e-06
-5.039151e-07
-4.142937e-06
-2.308611e-06
-2.638347e-06
-1.751004e-06
-1.075625e-06
-2.36636e-06
6.746145e-06
-2.683941e-06
-3.984495e-07
-2.14387e-06
-4.109691e-07
-9.536266e-07
1.888737e-06
-1.049417e-06
-2.752489e-06
-5.832908e-06
-7.549511e-07
-4.362805e-06
-7.386595e-06
-9.368412e-06
-3.232573e-07
-3.075253e-06
-3.198959e-06
-1.591859e-06
-4.028111e-06
2.917019e-07
-2.083233e-06
-2.88754e-06
1.841061e-07
-6.529024e-07
-5.860656e-06
2.095742e-06
-3.284925e-06
-6.789631e-06
-1.170317e-06
-1.367997e-06
4.831449e-07
-4.540556e-06
1.137983e-06
-3.427031e-06
4.020799e-06
1.315671e-06
-8.166132e-07
-4.187449e-06
-5.942499e-06
-4.833386e-06
-1.30367e-06
1.459046e-06
-7.855913e-07
-1.309513e-06
-8.807624e-07
-1.769609e-06
-5.136895e-06
-1.870669e-06
-3.494441e-06
-2.869413e-06
-8.056934e-07
-2.109606e-06
-4.077137e-07
-3.385729e-07
-2.971129e-06
-6.371427e-06
-2.115216e-07
-1.667971e-07
9.161812e-08
-5.051066e-06
-9.820075e-06
-9.972472e-07
-1.548997e-06
2.364037e-07
-3.065364e-06
9.251921e-08
-1.848026e-06
-2.261801e-06
-9.081696e-08
-2.953918e-06
-1.338231e-06
-4.076989e-06
9.763064e-09
-5.338103e-07
-1.866334e-06
-2.567541e-06
-3.204246e-07
-1.421833e-06
-2.94702e-06
-9.96073e-07
-1.635113e-06
-1.502107e-06
-1.887041e-06
-2.91222e-06
3.756114e-06
-1.222804e-06
-2.983066e-06
-3.468372e-06
-1.243217e-06
-3.281702e-06
-9.835065e-07
-9.294897e-07
-2.031078e-06
7.860782e-07
-1.841624e-06
-2.51467e-06
-1.032153e-06
-1.719851e-06
-1.399007e-06
-6.962997e-06
1.650508e-06
-3.82028e-07
2.178503e-06
-2.397764e-06
-3.76241e-06
-1.138543e-06
-3.135085e-06
-3.119088e-06
-2.503741e-07
-6.575237e-07
-2.35292e-07
-1.212016e-07
-4.548693e-07
-5.082355e-07
-1.355518e-06
4.529556e-07
-4.618489e-06
-3.94768e-06
-2.824108e-06
-3.796881e-07
-9.917338e-07
-1.149013e-06
-3.443473e-06
3.072191e-06
-4.369716e-06
-4.151693e-06
1.423955e-06
-2.094198e-06
-5.474376e-06
-4.47188e-06
-1.419224e-06
-1.274752e-06
2.312571e-06
-1.513762e-06
-1.607886e-06
6.088901e-07
-3.33949e-06
-4.101814e-06
4.375326e-06
-1.881142e-06
-1.36985e-06
-6.027906e-07
4.251925e-07
-2.609787e-06
-7.155207e-07
-3.640212e-07
3.692204e-08
-2.912226e-08
-3.038936e-06
-1.732857e-06
-1.440194e-06
2.086595e-07
-7.222756e-07
-2.131174e-06
1.037432e-06
-1.704456e-06
-3.032042e-07
1.044727e-06
-6.325145e-06
-8.658118e-06
-2.009969e-06
-1.018166e-06
5.847363e-07
6.619004e-07
3.395325e-08
6.283805e-07
-1.435556e-08
-3.996911e-06
3.099437e-06
-3.036686e-06
4.111009e-08
-6.449657e-06
1.511007e-06
4.584443e-06
-2.328912e-06
-6.974496e-07
-2.397662e-06
-2.378612e-06
-2.968102e-06
-2.682741e-06
-3.22178e-06
-1.664786e-06
1.898365e-06
-6.082591e-06
-5.629305e-06
-5.907635e-06
-1.011e-06
-5.782924e-06
-4.923605e-07
1.791927e-06
-1.958535e-06
-2.947174e-06
-1.239783e-06
-4.557617e-06
-1.91367e-06
2.387568e-07
-8.983224e-07
-8.027696e-07
-2.865157e-06
-2.728041e-07
1.096571e-06
-6.409831e-06
-2.002076e-06
-6.405995e-06
-3.484335e-06
-8.271835e-06
-7.13581e-06
-4.653791e-06
-2.419796e-06
-3.816038e-07
-2.360603e-06
-5.34804e-07
8.223037e-07
-8.284074e-06
-6.934307e-06
1.411055e-06
-1.25075e-06
7.896251e-07
2.626517e-07
-2.888427e-06
5.881185e-07
-1.022036e-06
-2.985149e-07
-4.765622e-06
-1.772883e-06
-1.538428e-06
-1.49028e-06
1.09715e-06
-1.636462e-06
-1.541552e-06
-2.577953e-06
-3.247041e-06
-2.072129e-06
-2.385535e-06
-1.211054e-06
-9.465212e-07
-4.078615e-06
-1.108136e-06
-4.079022e-06
2.242471e-07
-8.714496e-07
6.238003e-07
-8.809967e-07
-1.630967e-06
2.865537e-06
-3.932187e-06
-3.521861e-06
-8.743711e-07
-5.971288e-07
6.436726e-08
-3.963293e-07
1.401981e-07
2.544092e-06
-2.39696e-06
-1.718171e-06
-4.366607e-06
1.631351e-08
-4.073045e-06
-1.475076e-06
3.326889e-07
-1.115595e-06
2.027151e-06
-2.260322e-07
-1.195189e-06
-3.811646e-07
-1.869652e-06
1.614414e-06
-2.851633e-06
6.486136e-07
-1.882552e-06
-3.474914e-06
-1.080836e-05
-2.278943e-06
-2.417467e-06
-3.745425e-07
-1.526807e-06
-2.926473e-06
-2.898058e-06
-3.4981e-06
-1.853028e-06
-4.281409e-06
-2.685277e-06
-6.255769e-07
-2.548938e-06
-2.341381e-06
-2.76287e-07
-8.442457e-07
-2.868275e-07
-3.082603e-07
-5.112779e-07
-6.186954e-07
-3.65797e-07
-3.90124e-07
-3.18523e-06
1.491036e-06
-1.462115e-06
-3.553714e-06
-1.132027e-06
-8.09599e-07
1.338125e-06
3.346003e-07
-1.348396e-06
1.937245e-07
-2.023907e-06
-1.28782e-06
-1.320351e-06
-1.235631e-07
-6.153007e-07
-2.48336e-06
9.379045e-07
2.112579e-07
-1.38361e-06
-6.623742e-07
-6.725628e-07
-8.195426e-07
-3.659061e-07
-4.207507e-06
4.111742e-07
2.860145e-07
1.965479e-07
2.66544e-06
-9.03277e-06
-5.290628e-07
3.182437e-06
-5.437549e-07
-3.109581e-06
-3.537725e-08
-1.667228e-06
-3.034918e-06
-1.123387e-06
2.836586e-06
-2.601358e-06
-1.742509e-06
-2.014396e-06
-2.448639e-06
-6.07361e-07
-1.329803e-06
-4.72486e-06
-3.942081e-06
2.113288e-06
-2.684757e-06
7.766972e-07
-1.277738e-06
-3.161959e-06
-5.976636e-06
-4.038283e-06
-1.011459e-06
-1.362257e-06
-3.997805e-06
-3.504178e-06
-5.238478e-06
-3.240979e-07
1.266786e-06
6.026635e-07
-2.612567e-06
-2.236668e-06
-2.56998e-06
-2.431664e-06
-3.024453e-06
-8.680411e-08
7.855183e-08
-2.293986e-06
-3.286344e-06
-2.293123e-06
-7.190155e-07
-1.390219e-06
-3.002857e-06
-6.435333e-07
-2.271642e-06
-2.045355e-06
8.154987e-07
1.939653e-06
-2.555122e-06
-8.209081e-07
4.688623e-06
-3.316022e-06
-1.546892e-06
-2.36719e-06
-2.369519e-06
1.79714e-06
1.927741e-06
-2.501347e-07
-2.08456e-06
7.631645e-07
1.784582e-07
2.812255e-07
5.970849e-07
6.356959e-07
-1.129162e-06
7.765436e-07
-2.011762e-06
-5.835491e-06
-1.403955e-06
-1.495831e-06
-9.272494e-07
-5.618555e-07
3.442545e-06
5.986191e-07
2.275988e-07
-5.62944e-06
-5.779197e-07
-3.504367e-07
-3.906183e-06
-4.241176e-06
5.883979e-07
-3.405917e-06
-4.306764e-07
9.970221e-07
-1.450228e-06
-2.343437e-06
-1.475204e-06
-3.667204e-06
-5.722871e-06
-5.286005e-06
-1.318084e-06
-8.659313e-07
9.234505e-07
7.817388e-07
-1.138351e-06
-2.11347e-06
-1.155495e-06
-9.915467e-07
-1.511541e-07
2.260574e-06
4.378435e-06
-2.273686e-06
-2.258321e-07
-2.692835e-06
-3.899134e-06
-8.118012e-08
-1.176951e-06
3.605197e-07
-4.154033e-06
-2.685368e-06
-5.421379e-06
-1.344664e-06
-1.864433e-06
7.889086e-08
-5.134649e-06
-8.623267e-07
-8.675347e-06
-1.34469e-06
-2.144541e-06
-5.063932e-06
-1.317559e-06
-2.904329e-06
-3.354137e-06
-2.566913e-06
-1.717504e-06
-8.827846e-06
-1.9443e-06
-2.13589e-06
2.442586e-06
-1.558928e-06
-6.679118e-08
-2.721738e-06
-1.543923e-06
-1.384037e-06
1.51953e-06
-2.915298e-06
-1.640741e-06
-1.156149e-06
-1.506479e-06
-1.867765e-06
-1.95999e-06
1.593411e-06
9.554468e-07
1.545815e-06
-1.585152e-06
-1.161632e-06
-5.257379e-06
-3.037954e-06
-2.199421e-06
-3.540689e-06
-3.490013e-06
-8.207136e-07
9.048442e-07
-7.918276e-07
-4.221112e-06
-5.172328e-06
-8.190113e-07
-8.407498e-07
-8.673601e-07
-8.729543e-06
-1.201301e-06
2.403021e-07
3.060447e-06
-2.374679e-06
-1.968651e-06
-1.771477e-06
-6.377537e-06
-5.609689e-06
-1.912947e-06
-5.033466e-06
-1.208062e-06
-1.878705e-06
-4.178061e-06
-1.330607e-06
-1.840948e-06
-2.521223e-06
-1.799277e-06
-5.387154e-06
-1.384924e-06
-2.506539e-06
-1.035701e-06
-5.942079e-07
-3.738785e-06
2.917902e-06
1.225e-06
3.98252e-06
-1.74222e-06
-1.759598e-06
-7.722997e-07
-1.769593e-06
-9.692257e-07
-3.080527e-06
-2.491717e-06
-1.925291e-06
-5.579146e-06
-1.397362e-06
-5.696311e-06
4.333583e-08
-5.500218e-06
-5.862074e-06
-7.029507e-06
-4.266173e-06
-1.8288e-06
-1.385559e-06
-1.534952e-06
-1.535104e-06
-8.285906e-06
-1.677228e-06
-2.198451e-06
-6.017168e-06
-2.204904e-06
-4.664679e-06
-2.878159e-06
-1.265071e-06
-9.648724e-06
-7.089189e-06
-8.096261e-06
-4.680239e-06
-4.055582e-06
1.263143e-06
-6.790548e-06
-3.574873e-07
-4.887978e-06
-5.780593e-06
-1.775701e-06
-4.748239e-06
-3.497967e-06
-1.731396e-06
-4.921756e-06
-6.79434e-06
-1.567188e-06
-2.185171e-06
-1.167722e-06
3.742758e-07
-7.777836e-07
-3.613535e-06
-3.913102e-06
-9.070942e-06
-3.140326e-06
-1.106472e-06
-1.513509e-06
-1.040356e-06
-1.468931e-06
-5.567934e-06
-2.018319e-06
-1.739554e-06
-5.483211e-07
-2.410377e-06
-9.495153e-07
-4.458687e-06
-6.694385e-08
-1.701363e-06
-1.092269e-06
-1.277888e-06
-6.763274e-06
-2.302602e-06
-2.314037e-06
1.61714e-06
-1.299514e-06
-5.4042e-06
-8.243729e-06
-2.73363e-06
-2.201134e-06
-1.332067e-06
-2.170214e-06
-1.209619e-06
1.257208e-07
-1.229598e-06
-1.439095e-06
-3.675914e-07
-1.471046e-06
-1.542569e-06
-2.181093e-06
-1.724374e-06
-1.191907e-06
-2.621307e-06
-2.974374e-07
-1.106689e-06
-5.265964e-06
-1.010085e-05
1.140489e-07
1.030691e-06
-7.661982e-07
-1.582068e-06
-6.244644e-07
-2.929438e-07
-1.097013e-06
1.348476e-07
-5.80618e-07
-1.708736e-06
-1.956847e-06
-1.062039e-06
4.229986e-07
4.256373e-07
-3.543234e-06
-3.724321e-08
-2.303051e-06
-1.847586e-06
-4.329373e-06
-2.37319e-06
-5.788647e-06
-3.753949e-06
-6.929719e-06
-6.482803e-06
-4.025518e-06
-4.3457e-06
1.97055e-07
8.857036e-07
1.306616e-06
-1.67532e-06
-1.96525e-06
-1.055728e-06
-1.617704e-06
-1.38821e-06
-1.506808e-06
-1.549429e-06
-1.761077e-06
-3.128273e-06
-1.74384e-06
-4.180715e-07
-2.057202e-06
-3.147348e-07
-5.78531e-07
-6.491958e-06
-3.850981e-06
-3.713463e-06
-5.786975e-06
-5.233715e-06
-1.75165e-06
-2.389155e-06
-7.281916e-06
-3.324516e-06
-4.945404e-06
8.025467e-07
-6.48155e-06
6.732207e-08
-1.541305e-06
1.096182e-06
-4.48838e-06
-1.201894e-06
-3.735406e-06
-5.1028e-06
-7.991189e-06
-3.279754e-06
-2.751344e-06
-2.383137e-06
-8.660379e-07
-1.136505e-06
-4.958459e-07
-3.465173e-06
-3.621071e-06
-2.555943e-06
-6.14017e-06
-6.043831e-06
-5.51275e-06
-4.324219e-06
-8.041459e-06
-7.862878e-07
-1.567997e-06
-3.684976e-07
2.234096e-07
-1.341569e-06
-1.055021e-06
-2.736859e-06
-2.29407e-06
-5.177051e-06
-4.328068e-06
-3.960962e-06
-5.324731e-06
-4.557726e-06
-3.411809e-06
-3.884417e-06
-5.266833e-06
-4.131401e-06
9.46567e-08
3.282062e-08
-4.858809e-06
-5.801939e-06
-7.969463e-06
-6.228667e-06
-2.604473e-06
-2.767144e-06
-7.239395e-06
-7.896157e-06
-8.309567e-06
-2.295634e-06
3.714506e-07
-3.816964e-06
-4.109592e-06
-1.028279e-06
-1.135526e-06
-1.265926e-06
-3.585597e-06
-6.288333e-06
-4.790722e-06
-4.870126e-06
-4.782056e-06
-4.964644e-06
-6.029683e-06
-5.38464e-06
2.029261e-07
-4.837987e-06
-5.298963e-06
1.299608e-06
-4.036295e-06
-3.057766e-06
-3.233018e-06
-5.591631e-06
-2.496829e-06
-7.667812e-09
-4.081227e-06
-7.45929e-06
-8.731027e-07
1.536071e-08
-7.307595e-06
1.590011e-06
-4.783538e-06
-1.248655e-06
-2.301068e-06
-4.361175e-06
-1.9069e-06
-5.659366e-07
-3.825928e-07
-5.272207e-06
-3.401858e-06
-4.567001e-06
-6.19997e-06
-3.716124e-06
-3.996084e-06
-4.225532e-06
-5.228219e-06
-6.865678e-07
-1.230103e-06
-1.209885e-06
-1.932361e-06
-4.013769e-06
-8.645417e-06
-7.461063e-06
-1.464879e-06
-7.310271e-07
-6.999836e-06
2.119886e-06
-5.990032e-06
-1.81915e-06
3.426845e-06
-2.135915e-07
-3.224953e-06
-7.513992e-06
-2.342336e-07
-1.538469e-07
-1.06372e-06
-4.936106e-06
-8.543815e-06
-2.019877e-06
1.809026e-07
3.534471e-06
-8.538057e-07
-2.63492e-07
2.384083e-06
-1.951228e-06
6.94804e-07
-3.915289e-06
-2.022146e-06
-3.692108e-06
-8.979146e-07
-1.002827e-06
-3.672341e-06
-8.930026e-06
-2.312639e-07
-7.431338e-06
-4.85011e-06
-4.859136e-06
-2.399546e-06
-1.030411e-06
-4.106278e-06
-2.024943e-06
-2.279748e-06
-2.287557e-06
-2.26506e-06
2.15508e-06
-8.859594e-06
-8.855111e-06
-6.882704e-06
-9.966122e-06
-8.746842e-06
-8.983884e-06
-1.078688e-05
-2.507373e-06
-6.387555e-06
5.266136e-07
9.833927e-07
-2.112569e-07
1.685523e-07
-3.567093e-06
-2.780598e-06
-4.717959e-06
-1.83186e-06
-1.498893e-06
-1.398181e-06
-6.988375e-07
-1.629572e-06
-7.355562e-07
3.446299e-07
4.362923e-08
5.783717e-07
4.241431e-07
4.616515e-07
-3.117702e-06
-1.419939e-06
-9.422159e-08
2.83363e-07
2.397979e-06
-1.390134e-06
-2.810553e-07
-2.180952e-06
-5.684583e-06
1.394491e-07
-6.105449e-06
-7.673789e-06
-5.909289e-06
-2.307141e-06
-1.978974e-06
-4.368727e-06
-3.168778e-06
-6.257625e-06
-3.512445e-06
-8.820397e-07
2.449653e-06
-2.667183e-06
-2.857035e-06
-9.666432e-07
-1.267944e-06
1.07725e-06
-7.066608e-08
-1.204531e-06
-1.210266e-06
-1.185492e-06
-3.751499e-07
7.527768e-08
-3.232301e-07
-2.803232e-08
-1.168594e-06
9.565829e-08
-2.588629e-07
-2.833356e-07
2.597379e-08
-1.738138e-08
2.34975e-08
-2.517806e-06
-1.871806e-06
-2.032971e-06
-6.289043e-06
-7.268935e-06
-4.550087e-06
-1.373532e-06
-8.520048e-06
-5.491176e-06
-7.012922e-06
-1.010723e-06
-1.450334e-06
-3.712058e-06
1.099154e-06
-2.546958e-07
-1.960931e-06
-1.841795e-06
-6.989691e-07
-1.802896e-06
-1.990395e-06
-2.525643e-06
-7.620157e-08
-3.014106e-06
9.248716e-07
-6.936278e-07
-6.281616e-07
-1.267527e-06
-1.529133e-06
-1.356298e-06
-4.42462e-06
-6.879993e-07
-1.095358e-06
-1.798617e-06
-2.571255e-06
-2.810879e-06
-3.576723e-06
-8.307358e-06
-8.273284e-06
-1.068012e-06
-8.355369e-06
5.10879e-08
2.234976e-07
1.198058e-07
-1.03572e-07
1.380538e-07
3.578212e-07
-6.052125e-06
-5.911899e-06
2.901738e-07
-3.42337e-06
-3.260712e-06
-5.06642e-06
-1.775385e-06
-1.969693e-06
-1.926599e-06
-5.174447e-06
-2.536844e-07
-8.198744e-06
-3.282101e-06
-1.678128e-06
-2.040669e-07
-2.034518e-06
-2.110989e-06
-6.358437e-07
-7.854292e-07
-2.525245e-06
-1.104998e-06
-1.706871e-06
-2.303214e-06
-2.080724e-06
-1.884331e-06
2.636332e-07
-2.346598e-06
-2.245698e-06
-1.905833e-06
-1.271587e-06
-2.489893e-06
-2.67507e-06
-1.568444e-06
-8.542446e-07
-3.997481e-06
-7.663461e-07
-4.647153e-06
-2.278759e-06
-3.509892e-06
-3.176843e-06
-5.174668e-07
-1.954683e-06
-2.283511e-06
-5.038049e-06
-1.704943e-06
8.02349e-07
-1.440234e-06
-5.25605e-06
-1.806965e-06
-1.821931e-06
-1.939467e-07
7.389698e-07
-1.735946e-06
-1.649999e-06
1.262742e-06
-4.941117e-06
-7.40343e-06
-5.730173e-06
-1.454705e-06
8.741456e-07
8.464773e-07
-1.111205e-06
-7.365957e-07
-1.434048e-06
-3.508451e-07
-2.1049e-06
3.61468e-07
-2.031826e-06
-3.463963e-06
-3.744421e-06
-1.018869e-06
-2.452615e-06
-2.616724e-06
-3.108022e-07
-1.877955e-06
-2.220617e-06
-5.013592e-06
-3.660802e-06
-3.360622e-06
2.871627e-07
2.070793e-06
4.730627e-08
-4.11545e-06
-4.808726e-06
-8.178957e-07
-2.243026e-07
-1.736262e-06
2.34659e-07
-1.071153e-06
-1.29759e-06
1.591764e-07
6.973402e-07
-5.077301e-07
5.588626e-08
-5.479183e-07
-1.793281e-06
-1.382022e-06
-4.368502e-06
-9.336803e-07
-5.894636e-07
-2.750685e-06
1.91872e-07
-8.533024e-07
-7.220195e-07
-1.053913e-06
-3.751747e-06
-5.223661e-06
-1.592432e-06
-1.311098e-06
-1.476771e-06
7.182104e-08
-1.827098e-06
6.95099e-07
-3.461988e-06
-2.002991e-06
-1.846497e-06
-8.552332e-06
-6.150494e-06
-1.115384e-06
-4.151013e-06
-6.250594e-06
-6.57423e-06
-8.872703e-07
-8.713006e-07
-1.507636e-06
-4.163321e-07
-2.924543e-06
-5.620761e-07
5.723943e-07
-2.036965e-06
-7.820089e-06
-8.349073e-07
5.474682e-07
-1.211004e-06
-1.056635e-06
-2.094108e-06
-7.231698e-07
-4.304981e-06
-5.784494e-06
-2.054748e-06
-4.374087e-06
2.199402e-07
1.794779e-06
-6.564426e-07
-7.707019e-06
-1.265348e-06
-1.670085e-06
-5.27391e-07
-1.423733e-06
3.792408e-06
-2.488179e-06
-4.166225e-06
-3.42306e-07
-2.296673e-06
-2.155123e-06
1.476076e-06
1.226279e-06
-9.576112e-08
-1.577379e-06
5.286319e-07
1.487099e-07
-1.3406e-06
-6.444573e-06
-4.141995e-07
-3.37053e-07
-4.732895e-07
-6.472548e-07
-9.435073e-07
-5.835659e-07
-6.944829e-07
-3.916509e-07
-6.503288e-07
-6.7828e-07
-3.416515e-07
-4.148134e-07
-2.488594e-06
-4.261943e-07
4.3841e-07
8.102211e-07
7.335927e-07
-7.651659e-08
1.196936e-07
6.617676e-08
1.11248e-06
3.002284e-08
-4.372975e-06
1.79668e-06
1.422198e-06
-1.216835e-06
-4.241662e-06
-3.1403e-06
-4.233744e-06
-1.193138e-06
-5.890764e-06
-7.502272e-07
-7.519034e-07
1.894437e-06
7.469469e-08
-1.936184e-07
-4.724076e-07
-1.846255e-06
-1.037003e-06
-3.049431e-06
-2.813361e-06
-8.000385e-06
-3.261028e-06
-3.148909e-06
-3.345605e-06
-2.865221e-06
-3.711064e-06
-3.605983e-06
-3.596735e-06
-3.172999e-06
-2.692032e-06
3.256626e-07
-4.575212e-06
-3.674818e-06
-2.068949e-06
5.355188e-07
-4.769911e-06
1.035781e-06
-1.712936e-06
-6.526568e-08
-4.696183e-06
-4.143968e-06
-5.038387e-06
-7.781465e-06
-7.59966e-06
-2.760131e-06
-1.210289e-06
-1.262124e-06
-1.686067e-06
-1.601441e-06
-2.658838e-06
2.12442e-07
-6.495405e-06
-2.162704e-06
2.873263e-07
-2.807989e-07
2.563185e-06
-4.77542e-06
-5.787406e-06
-3.489464e-06
-4.858441e-06
-4.57769e-06
-3.234427e-06
-2.777616e-06
-3.399206e-07
-3.603514e-06
2.101381e-06
1.492512e-06
1.066409e-06
-4.410351e-06
-4.403834e-06
-5.424338e-06
-4.966009e-06
-3.072057e-06
-4.267401e-06
-5.808732e-06
-6.141112e-06
-4.655475e-06
-3.900082e-06
-1.485183e-06
-4.566257e-06
-1.105812e-06
-7.403445e-06
1.192798e-06
-1.626183e-07
-4.334908e-06
1.570081e-07
4.873648e-07
2.67937e-06
-1.852924e-06
3.381424e-06
2.614503e-06
-2.231056e-06
-4.330002e-06
-7.218554e-06
8.988487e-07
5.110086e-07
4.256138e-07
-5.057249e-07
-5.012412e-06
-4.833585e-06
-4.51671e-06
-2.911729e-07
-6.830477e-08
-5.737254e-06
-7.981929e-06
-8.292057e-06
-3.579534e-06
-2.87154e-06
-5.162386e-06
-6.518176e-06
-1.592887e-06
-2.229856e-06
-3.238915e-06
-3.067063e-06
-2.846883e-06
-8.015722e-07
-8.463591e-06
1.222595e-07
-1.725064e-06
1.79096e-06
-1.205965e-07
-2.647264e-06
1.081625e-06
-2.992426e-06
2.738449e-07
-6.376569e-06
-1.350317e-06
-3.192135e-06
9.607644e-07
-8.010009e-07
2.983897e-07
-3.766439e-07
-7.585534e-07
-2.729393e-06
-1.537023e-06
-1.979413e-06
-1.724777e-06
-1.274559e-06
-1.337792e-06
-1.970596e-06
-6.236096e-06
-2.452856e-06
-5.514575e-07
-3.263622e-06
1.098945e-06
1.044098e-06
-4.12492e-06
-4.938365e-08
-3.666618e-06
-2.046282e-06
-2.070796e-06
-1.219352e-06
-1.675054e-06
2.797086e-06
-4.072842e-07
4.644592e-07
-4.522731e-06
4.866955e-06
-6.795761e-07
-1.80439e-06
-7.569057e-07
-7.297921e-07
-6.249458e-07
-7.248254e-07
-1.559431e-06
-8.061453e-07
-7.58968e-07
4.703304e-06
9.626066e-08
3.063835e-08
-1.206967e-06
-2.475972e-06
-2.97947e-06
-1.36362e-06
-1.261188e-06
1.478866e-07
3.713972e-07
6.403659e-07
-1.165327e-06
-1.325216e-06
3.628102e-06
3.031178e-06
3.192674e-07
4.77066e-07
-4.666063e-07
-1.444071e-06
-1.544864e-06
-2.301238e-06
-1.811225e-06
2.921977e-07
-4.817837e-08
-5.227261e-06
-1.009829e-06
-1.023997e-06
9.528131e-07
1.030298e-06
-4.78961e-06
-1.874975e-06
-2.218023e-06
6.70678e-07
4.436171e-07
-7.970122e-06
-3.396196e-06
-4.194666e-06
-4.009316e-06
-8.377029e-07
-1.095496e-06
-6.713597e-08
-1.205878e-06
-9.369147e-06
9.323945e-07
-4.812029e-06
2.274646e-06
-7.914837e-07
-1.178522e-06
-1.945715e-06
-3.039573e-07
-5.012023e-07
-3.365054e-06
-9.749119e-07
7.722557e-07
8.475784e-07
-4.283752e-06
-7.494205e-06
3.102262e-07
-2.415736e-07
-2.969185e-06
-1.437421e-07
-2.485125e-07
-3.904266e-06
-8.979814e-06
1.267977e-07
7.366654e-07
-2.257798e-06
-4.314851e-06
-4.954208e-06
-4.378818e-06
-4.299034e-07
-4.01012e-07
-3.02425e-06
-2.071356e-06
-3.508407e-08
-9.175365e-09
2.924685e-07
-1.049375e-07
6.026142e-07
2.459499e-06
2.272912e-06
-2.425496e-07
-1.429124e-06
-2.833622e-06
-2.016015e-06
-3.227968e-06
2.811858e-06
-6.151026e-06
-2.046254e-06
-2.222952e-06
-2.535952e-06
4.501671e-07
-2.107255e-06
-1.910187e-06
-4.825609e-06
-5.492394e-06
8.284238e-08
-4.641655e-06
2.297216e-06
-4.927847e-07
-9.081465e-08
-8.386972e-07
-7.89623e-06
-7.428698e-06
-1.058426e-07
-1.864983e-06
-2.341982e-06
-3.398605e-06
9.327968e-07
-4.9047e-07
-2.52514e-06
-2.162178e-06
-1.769982e-06
3.681461e-06
4.113057e-06
2.887868e-08
-5.131827e-08
-4.023989e-06
-1.529698e-07
-1.367755e-06
-1.569568e-06
-4.351009e-06
-5.58415e-06
-5.686469e-07
-1.205452e-07
-1.593821e-06
-1.478385e-06
2.627487e-07
-4.274227e-06
1.836111e-07
-5.653546e-07
-7.034218e-06
-1.405954e-06
2.74619e-06
4.958244e-06
-1.428113e-06
-1.179587e-06
3.140999e-07
4.492305e-07
-1.024918e-06
1.932724e-06
2.781358e-06
7.914418e-07
5.7948e-07
-6.041903e-07
-4.492128e-07
4.415635e-06
2.262436e-06
-2.446153e-06
7.196309e-07
1.588872e-06
-3.979218e-06
-1.777337e-06
-2.414902e-06
-2.399282e-06
-1.15768e-06
-1.032153e-06
-2.133604e-06
-2.651006e-06
-2.361862e-06
-2.578067e-06
-3.420723e-06
-2.845057e-06
-3.136941e-06
-4.917043e-06
-1.907866e-06
-2.747103e-06
-2.851027e-06
-3.316478e-06
-3.253504e-06
-3.401763e-06
-2.548109e-06
-3.075881e-06
-2.88577e-06
-2.340379e-06
-2.011399e-06
-9.420241e-08
-1.918619e-06
-2.060788e-06
-4.149544e-06
-4.06036e-06
-2.656026e-08
1.393156e-06
-3.005375e-06
-4.782611e-06
3.543479e-07
-1.191426e-06
-4.129635e-06
-1.458191e-06
-2.237527e-06
-2.810576e-06
-2.402834e-06
-2.506317e-06
-2.692388e-06
-9.061071e-07
-2.935831e-06
-2.88779e-06
-3.611476e-06
-2.635168e-06
-2.403836e-06
-3.065014e-06
-4.093858e-07
2.178324e-07
1.275143e-07
1.947178e-06
5.754839e-07
-1.266532e-06
-1.24494e-06
6.300331e-08
-5.538735e-07
-1.814451e-06
1.084852e-07
-5.399188e-06
-3.131644e-06
-2.541054e-06
2.310014e-07
1.99623e-07
1.062138e-06
1.030831e-06
1.098718e-06
-1.476351e-06
-1.627823e-06
-1.60915e-06
-4.553992e-06
-2.630944e-06
-1.965797e-06
-2.310577e-06
-1.21852e-06
-1.648766e-06
1.986893e-06
-1.231672e-06
-3.618034e-07
-3.269599e-06
-1.809581e-06
4.988379e-07
-2.238321e-06
-3.013468e-07
-1.627128e-06
-1.82164e-06
-1.74317e-06
9.986615e-08
-2.197124e-06
-7.050633e-06
1.253079e-06
1.735165e-06
1.666035e-06
1.503785e-06
1.111296e-07
-1.794861e-06
-2.583943e-07
-1.349225e-06
-7.298824e-07
-3.295086e-06
3.702681e-07
5.134177e-07
-1.335441e-06
-2.954636e-06
-8.903205e-07
-2.028824e-06
-1.906999e-06
4.49978e-06
-6.894032e-06
-6.409227e-06
-1.292954e-06
-1.420515e-06
-2.714893e-06
-1.290436e-06
-3.983515e-06
-2.160719e-06
-2.823406e-06
-4.962337e-07
-1.337811e-06
-9.833917e-07
-1.263227e-06
-1.175568e-06
-2.117296e-06
-3.266162e-06
-1.435488e-06
-1.60492e-06
-4.846945e-07
2.964302e-07
-7.997494e-06
-4.986888e-06
-4.810843e-06
2.020084e-07
-2.46373e-06
2.522204e-07
1.712014e-06
2.015236e-06
-1.506689e-06
-6.738993e-07
-1.651792e-06
-2.271536e-06
-5.401732e-07
1.259311e-06
-6.356062e-06
-5.251393e-06
-6.833257e-07
-6.384528e-07
-9.585853e-07
-4.580178e-06
-4.161085e-06
-6.149932e-06
2.965002e-07
3.548142e-07
-8.508924e-06
2.087166e-06
-3.654889e-06
-2.563294e-06
2.14689e-07
-1.566777e-06
-9.513744e-07
-7.490541e-07
-2.668426e-06
-2.846302e-06
9.191604e-07
-1.821335e-06
-1.421781e-06
1.752912e-06
-8.423157e-06
-5.165683e-06
-3.15522e-06
-1.658851e-06
-1.829569e-06
-1.150182e-06
-1.256981e-06
-2.298624e-06
-1.895243e-06
-1.974247e-06
-1.720036e-06
3.933348e-07
3.032344e-07
-6.775088e-06
-6.503971e-06
2.740893e-06
-3.716243e-07
-5.445105e-07
-1.242248e-07
6.465033e-08
-3.360081e-06
-2.309189e-07
-5.864248e-07
-1.353217e-06
-1.543404e-06
4.953607e-06
-1.59613e-06
1.461149e-06
9.166391e-07
-1.987833e-06
-4.422423e-06
-3.657951e-07
-2.685137e-07
-1.520152e-06
-1.782488e-06
-2.313211e-06
-3.467049e-06
-5.686005e-06
-2.465781e-06
-7.073324e-06
-7.6921e-06
-1.512768e-07
-2.031451e-06
-1.128232e-06
-8.181255e-06
-2.451709e-06
-7.877797e-06
-1.942873e-07
-1.349171e-06
8.635479e-07
1.402828e-06
2.031265e-07
1.050748e-07
1.389762e-06
4.562326e-07
-2.655885e-06
-2.2268e-06
-2.186215e-06
1.953323e-07
1.094972e-06
-7.765161e-06
-5.47278e-08
4.003945e-08
-2.881236e-06
-2.916038e-06
-4.026984e-06
-3.158354e-06
-9.21462e-07
-4.300495e-07
-5.978134e-07
-3.678002e-06
-5.152861e-06
-1.482719e-06
-5.803992e-06
-5.154764e-06
-5.32888e-06
-5.723246e-06
5.592478e-07
-4.864955e-06
-1.780292e-07
-3.446814e-06
-3.580913e-06
-3.531638e-06
-7.891591e-06
-2.584813e-06
-2.101249e-06
-2.776061e-06
-2.988667e-06
-5.483384e-06
-6.357355e-08
-9.707578e-07
-1.453585e-06
-3.459131e-07
-7.909186e-06
-9.626568e-06
-8.321964e-06
-2.197079e-06
-6.413429e-06
-8.271688e-06
-9.043426e-06
-1.248542e-06
-1.919867e-06
-1.703104e-06
-2.719521e-06
-2.241697e-06
-4.47192e-06
-3.394984e-06
1.823447e-06
-6.5159e-06
-2.107623e-06
1.960578e-06
1.885079e-06
-2.081472e-06
1.588155e-08
-4.325715e-06
2.512954e-07
-1.227442e-06
-1.31015e-06
-3.840355e-07
-2.217969e-06
8.307232e-07
-2.003434e-06
-8.123315e-06
-3.852508e-06
-6.321604e-06
-7.548918e-06
-6.770808e-06
-9.990234e-07
-6.549701e-06
-4.401766e-06
-3.88625e-06
-2.093396e-06
-1.804625e-06
-1.710736e-06
-1.129048e-06
-4.026459e-07
-3.195123e-06
-2.514198e-06
-7.009114e-06
-5.122485e-06
-4.327586e-06
-4.307212e-06
3.882283e-07
-7.714723e-07
-1.166779e-06
3.195288e-06
-2.717581e-06
-3.522817e-06
-3.484959e-06
-5.639664e-07
-5.951461e-07
-4.632435e-06
-2.697039e-06
-4.302024e-07
-4.000656e-06
-2.684904e-06
-2.522177e-06
-2.583002e-06
-3.248809e-06
-5.50092e-06
-1.140593e-06
-1.436554e-06
1.153449e-06
1.075148e-06
-1.188241e-07
-9.556837e-08
-2.026625e-07
-2.372996e-07
-1.768285e-07
8.579744e-08
-1.719542e-06
-3.625843e-06
-5.58283e-06
-4.306226e-07
-1.422177e-06
-1.072912e-06
-1.123624e-06
-1.672083e-06
1.251467e-06
-6.721669e-07
-1.120957e-06
-2.021823e-06
-1.683655e-06
-1.663922e-06
-9.231156e-07
-5.473968e-07
-5.217826e-07
7.254813e-07
7.832807e-07
9.221702e-07
-5.709342e-06
-1.16761e-06
2.783335e-07
4.849354e-07
-6.875026e-07
-1.638266e-06
-2.006756e-06
-1.067001e-06
-9.327934e-07
1.949004e-06
1.648943e-06
-8.317787e-07
2.560235e-06
-5.117823e-06
-6.568285e-06
-1.783801e-07
-2.361303e-06
-6.579114e-07
-1.474941e-06
4.815471e-07
-4.268225e-07
-1.31077e-06
-2.376897e-06
-4.129833e-06
-4.049034e-06
-9.002546e-07
-5.546421e-07
-7.744084e-06
-1.968842e-06
-5.249433e-06
4.874803e-07
-2.798277e-06
-2.779565e-06
2.352161e-09
6.979967e-08
-1.235446e-06
-1.184943e-06
-1.314987e-06
2.050979e-07
-1.856327e-06
-2.483412e-06
-2.222959e-06
-2.625735e-06
-1.445315e-06
-1.891673e-06
-1.412591e-06
-1.407954e-06
3.366418e-06
3.078691e-06
-1.860299e-06
2.953908e-07
3.583112e-07
-1.430181e-06
-1.278639e-06
-3.009833e-06
-1.484329e-06
-2.050556e-06
-3.818286e-07
-6.334372e-07
-2.482092e-06
-6.778104e-06
-7.131634e-06
-4.843811e-06
-4.585798e-06
-1.612925e-06
-1.609676e-06
4.876409e-07
-8.826689e-06
-8.440167e-06
-8.611734e-06
-3.399483e-06
9.473525e-07
-8.600559e-07
-8.499541e-07
5.028533e-07
1.742473e-06
-8.995348e-07
1.809042e-06
-1.786425e-06
-1.384912e-06
-1.833683e-06
-1.630398e-06
-1.606502e-06
-7.288841e-07
-5.944064e-07
-2.197618e-07
-5.560867e-07
-1.048354e-06
-1.287435e-06
5.830735e-07
7.588654e-07
-1.893764e-06
-1.706635e-06
1.465161e-06
-4.063429e-06
-4.98346e-06
-4.843595e-06
-5.308115e-06
-5.140587e-06
-5.678328e-06
-6.473836e-06
-5.494474e-06
-4.967724e-06
-6.255635e-06
-8.259734e-06
7.96784e-07
-2.172064e-06
-2.069324e-06
-4.893324e-06
-1.741098e-06
-1.123346e-06
-8.906444e-07
-7.945807e-07
-4.940738e-09
1.080801e-07
-6.415484e-07
5.816874e-08
-1.960475e-06
-1.168122e-06
1.544408e-07
-8.662965e-06
-8.719703e-06
-1.767261e-06
-2.127599e-06
-2.093124e-06
-1.67028e-06