/*--------------------------------*- C++ -*----------------------------------*\
| =========                 |                                                 |
| \\      /  F ield         | OpenFOAM: The Open Source CFD Toolbox           |
|  \\    /   O peration     | Version:  2406                                  |
|   \\  /    A nd           | Website:  www.openfoam.com                      |
|    \\/     M anipulation  |                                                 |
\*---------------------------------------------------------------------------*/
FoamFile
{
    version     2.0;
    format      ascii;
    arch        "LSB;label=32;scalar=64";
    class       volVectorField;
    location    "0.24";
    object      U;
}
// * * * * * * * * * * * * * * * * * * * * * * * * * * * * * * * * * * * * * //

dimensions      [0 1 -1 0 0 0 0];

internalField   nonuniform List<vector> 
4529
(
(0.01024212 -0.0006721045 0)
(0.009578357 -0.0001966574 1.137987e-24)
(0.009658874 7.624246e-05 -1.206791e-24)
(0.008983444 -0.0004300725 -2.786763e-24)
(0.009364209 0.0001715304 1.522849e-24)
(0.009415669 0.001065768 0)
(0.009737079 0.0002763513 0)
(0.009717741 0.0008331492 -1.437167e-25)
(0.009473369 -5.543734e-05 -1.166157e-24)
(0.009778399 -0.0002573092 6.615591e-26)
(0.01030796 -0.0001160392 -2.178099e-25)
(0.009989097 -0.0004404022 -3.798791e-25)
(0.009945517 -0.0002297997 3.198915e-25)
(0.009983624 -0.0004162925 -3.803586e-25)
(0.009780791 -0.0001386412 0)
(0.009893889 -0.000196987 4.081013e-25)
(0.009453863 -0.0004352196 0)
(0.009865899 -0.0003125128 4.871018e-25)
(0.01006336 -0.0001691326 0)
(0.009779455 -0.0005474026 -4.602935e-26)
(0.01001449 -0.0001839347 2.868125e-27)
(0.009821754 -0.0002211993 1.025758e-24)
(0.009811244 -4.460569e-05 -3.22478e-25)
(0.009681136 -0.0001613645 0)
(0.01000878 -0.0001633294 2.470007e-26)
(0.009687907 -0.0002684621 -1.460725e-27)
(0.009969104 0.001060093 -2.999043e-25)
(0.00933833 0.0004243859 -8.837711e-25)
(0.009538418 0.0006923104 1.097878e-24)
(0.009215011 9.438226e-05 -1.307996e-24)
(0.01004716 -0.0003053006 8.080892e-26)
(0.009804912 4.797973e-05 4.283858e-25)
(0.009898563 -0.0001575864 0)
(0.01010005 -0.0002775353 0)
(0.01052809 -0.0004313681 0)
(0.00959738 0.00033235 1.79573e-24)
(0.009690675 -0.0001507347 -3.931123e-25)
(0.009974934 -0.0005529674 0)
(0.009365268 -0.0006099009 -2.120427e-24)
(0.01040161 -0.0006446395 -3.383325e-26)
(0.009795353 -8.521738e-05 -3.338321e-26)
(0.009903767 -0.0001417222 -3.694451e-25)
(0.009769831 -7.642236e-05 -6.60629e-25)
(0.0100501 -0.0002322638 0)
(0.01004657 -0.0002113029 1.726357e-26)
(0.0103674 -0.00048809 -1.087022e-24)
(0.009763179 3.348682e-05 0)
(0.009601155 -0.0001652212 0)
(0.0100618 -0.0001483686 -2.059245e-27)
(0.009495052 6.315503e-05 -1.397799e-24)
(0.008399759 -0.000239399 5.155115e-24)
(0.009743291 -0.0002005498 -3.334571e-25)
(0.008341292 0.0003365321 0)
(0.01021832 -0.0004272429 1.793739e-27)
(0.009673869 -0.0006957297 1.991974e-25)
(0.00947439 -0.0001550655 -8.290479e-25)
(0.009509352 -5.167973e-05 0)
(0.01037211 -7.223184e-05 2.311591e-24)
(0.008947825 0.0008098769 5.366401e-24)
(0.008768922 -0.0008138912 -3.897755e-24)
(0.009655402 0.0006025474 9.146051e-25)
(0.01028255 -0.0004037926 0)
(0.009946073 -0.0001581749 -2.198502e-25)
(0.008746921 -0.0009176515 0)
(0.009695685 0.0001638436 0)
(0.01017563 -0.0003988617 1.163662e-26)
(0.01007137 -0.0006665553 5.354164e-25)
(0.009821168 -0.0001189991 3.406215e-25)
(0.009683544 3.698628e-05 0)
(0.01062643 -0.000350388 0)
(0.00970525 -6.807141e-06 2.048949e-24)
(0.009547925 -0.0001434661 1.320138e-24)
(0.009200717 -7.662045e-05 -1.072905e-24)
(0.009908718 -0.0001537864 -4.716364e-25)
(0.008393033 0.0002904617 -1.529406e-24)
(0.009229894 -0.0006884387 -2.89383e-24)
(0.01047028 -0.0006311357 -3.289593e-25)
(0.01023197 -0.0001413235 0)
(0.009155495 -0.001095271 3.395667e-24)
(0.009531722 0.0001123326 2.996048e-25)
(0.009299385 -5.582754e-05 2.03932e-24)
(0.009748315 9.546291e-05 7.389305e-25)
(0.01010566 -0.0002043455 -9.056523e-26)
(0.009789809 -0.00025441 -1.80891e-25)
(0.009584953 -0.0003993229 -8.689243e-25)
(0.009898135 -0.0002273392 1.005288e-24)
(0.01005398 -0.0001689394 0)
(0.01021462 -0.0003025751 0)
(0.01035622 -0.0004374725 0)
(0.010257 -0.0008021235 6.566484e-25)
(0.008484085 -0.0005064726 1.860938e-24)
(0.009872107 -0.0001183467 0)
(0.01009346 -0.0001784979 -5.834318e-26)
(0.009757385 0.0001747507 -2.422089e-25)
(0.009844499 -0.0001073633 0)
(0.01002883 -0.0004644351 -3.950813e-25)
(0.008932681 -0.0002143366 -2.886605e-24)
(0.009763471 -0.0007958819 -1.983189e-25)
(0.009734891 0.001027551 5.567428e-24)
(0.009638363 -0.0003912924 -9.408037e-25)
(0.009906873 -0.0001967731 0)
(0.009313593 -0.0003953459 -9.150244e-26)
(0.009609655 0.0001823687 1.077257e-24)
(0.009778052 -0.0007713815 -1.770836e-25)
(0.009809848 -0.000170766 -5.163711e-25)
(0.01038249 -0.0005139777 -3.035355e-25)
(0.009960192 -0.001229126 3.343175e-24)
(0.01042088 -0.0004933424 1.61998e-25)
(0.01020643 -0.0002852295 -1.353437e-24)
(0.01012198 -0.0004769657 6.694984e-26)
(0.009981376 -0.000150596 5.71607e-26)
(0.009788361 0.000118864 3.430583e-25)
(0.009134 0.0004876586 0)
(0.009382101 0.0005681391 5.294696e-24)
(0.00916053 -0.0001415853 0)
(0.009827174 -0.0001391532 -5.807958e-25)
(0.01000482 -0.000768214 -1.571631e-24)
(0.009650316 0.0006268533 1.343283e-24)
(0.009742786 -0.0002413103 -5.290508e-25)
(0.009980364 -0.0002671808 0)
(0.009888032 -0.0008966775 0)
(0.009692303 0.0001391637 -6.091898e-26)
(0.01027294 -0.0006550142 0)
(0.01002704 -0.0006400267 -7.772089e-25)
(0.009817667 -0.0001469562 3.34154e-25)
(0.009424138 -0.0004469902 0)
(0.009705344 0.0006028865 0)
(0.01017744 -0.0003137562 -2.844339e-25)
(0.009769737 -0.000150001 0)
(0.009319787 -0.0007721753 -2.176129e-24)
(0.009711755 0.0001976212 3.060888e-26)
(0.00969929 0.0009694545 3.375017e-24)
(0.008437763 -0.0005563961 -4.62912e-24)
(0.01021383 -0.0005459595 4.231711e-26)
(0.01039618 -0.0006188838 0)
(0.01012241 -0.000291215 -2.176931e-25)
(0.01014594 -0.000284722 0)
(0.0100222 -0.0002298069 -1.784848e-26)
(0.01001504 -0.000513106 0)
(0.009691131 -0.0004338912 0)
(0.009885424 -0.0007595748 1.35006e-24)
(0.009901618 -0.000565591 -2.037766e-24)
(0.009915255 -0.0002823435 -3.710261e-25)
(0.009510111 -0.0005339301 -2.165262e-24)
(0.008917949 2.279168e-05 3.068128e-25)
(0.00970963 0.0007861674 1.481929e-24)
(0.01027803 -0.0006316731 -1.231945e-25)
(0.009152916 0.0001036843 1.33333e-24)
(0.009726496 0.0004948436 0)
(0.00971751 -0.0002398033 4.513075e-25)
(0.009625573 -3.508406e-05 5.203385e-25)
(0.009408343 0.0004895306 -5.416256e-25)
(0.009619333 -0.0006152868 1.415507e-24)
(0.009904366 -0.0001758638 3.482676e-25)
(0.009678447 0.001088275 4.210348e-24)
(0.009959751 -0.0002852011 -3.358122e-25)
(0.01010451 -0.0003526283 0)
(0.009713153 -0.00083317 0)
(0.0098985 -0.0003222614 -6.167324e-25)
(0.00965779 8.7905e-05 1.179661e-24)
(0.01064644 -0.0005156346 0)
(0.009987233 -0.00019976 1.957029e-25)
(0.009455395 -0.0008909295 -1.252602e-25)
(0.01004065 -0.0009460504 8.636621e-25)
(0.01002104 -0.0001769929 2.70766e-26)
(0.01005293 -0.0001735441 0)
(0.01003428 -0.0002258901 8.023206e-27)
(0.009729102 -0.0004870422 0)
(0.01017989 -0.00100866 0)
(0.009704977 0.0003067937 -1.381155e-24)
(0.009094782 0.0008308173 0)
(0.009761964 8.543308e-05 0)
(0.008498326 -0.0008013607 2.884694e-24)
(0.01011666 -0.0002332848 -4.269894e-26)
(0.01052612 -0.0006620984 0)
(0.009557156 0.0005683809 -7.509975e-25)
(0.009991375 -0.0006322388 -1.325096e-24)
(0.009002606 -0.001093384 -3.442137e-24)
(0.008361993 -0.0006629303 -2.512001e-25)
(0.01071055 -0.0005740832 0)
(0.01012305 -0.0002474374 -2.740917e-25)
(0.009641313 -0.0002994212 0)
(0.009696939 2.273684e-05 1.958637e-24)
(0.009744033 5.32514e-06 1.026872e-24)
(0.01072022 -0.000393063 -9.401389e-25)
(0.008534145 -0.001037655 -3.267872e-24)
(0.009755211 -0.0006810971 -1.112593e-24)
(0.009979333 -0.0002587398 -2.970094e-25)
(0.009167063 -2.677125e-05 5.652627e-25)
(0.00998507 -0.0002853959 0)
(0.00960493 0.0006603496 4.039017e-25)
(0.008586023 -0.0003194846 0)
(0.01018126 -0.0002715798 0)
(0.00967036 0.0009008703 -7.57338e-26)
(0.009695045 -0.0003056803 0)
(0.01038725 -0.0004549193 2.763409e-25)
(0.0100803 -0.0002283569 0)
(0.008845588 -0.000215206 0)
(0.01069312 -0.000424371 2.050612e-24)
(0.01002495 -0.0001864641 7.167705e-27)
(0.009761561 0.000155563 8.322314e-25)
(0.01033205 -0.0003123631 7.738707e-25)
(0.009782857 1.902788e-05 -2.091098e-25)
(0.008610333 0.0002164143 0)
(0.00984054 -0.0001415915 0)
(0.009609788 -0.0002101299 -1.173729e-24)
(0.009327148 -0.0008155523 0)
(0.009598745 -0.0001952791 0)
(0.009487037 0.0003276842 0)
(0.008686201 -0.000811214 3.548651e-24)
(0.01012431 -0.0003068411 -1.087611e-26)
(0.009434258 0.0002158596 3.309555e-25)
(0.01009128 -0.0004008349 0)
(0.009591871 -0.0006968194 1.960932e-24)
(0.009703425 -0.000437468 1.373618e-24)
(0.009650011 0.0004576685 0)
(0.009802716 -0.0004015523 0)
(0.009864836 -0.0002371906 -1.142107e-24)
(0.009605942 0.0001504368 0)
(0.01053624 -1.330506e-05 -3.107436e-24)
(0.009650389 -0.0004594308 -1.175506e-24)
(0.00996167 -0.0001843523 4.69689e-26)
(0.009779713 -0.0004460196 -6.460622e-25)
(0.01001 -0.0003033296 -1.236156e-27)
(0.01003514 -0.0004921827 -1.012256e-24)
(0.01042715 -0.0003849821 -1.352236e-25)
(0.009832465 -0.0001212918 -1.056023e-24)
(0.009533042 -7.338566e-05 -6.380368e-25)
(0.009427418 -0.001072187 2.76508e-24)
(0.009916834 -0.0001445249 7.404764e-25)
(0.009759857 0.001111235 0)
(0.008641877 0.000561131 5.108178e-24)
(0.009490361 -0.001367189 0)
(0.01005446 -0.0003725717 -1.196532e-25)
(0.009472088 -0.0002901928 -7.949501e-25)
(0.009632004 0.0005823132 1.339887e-24)
(0.01011006 -0.000823224 8.295229e-26)
(0.009533904 -0.0008162885 -1.927499e-24)
(0.0100822 -0.0002222048 1.001209e-25)
(0.009608211 9.624728e-05 6.483239e-25)
(0.009481242 0.0001982328 0)
(0.01007037 -0.0002106146 0)
(0.009916636 -0.0002217661 5.829119e-25)
(0.008804286 -0.0003864697 2.794525e-24)
(0.01029084 -0.0001786149 9.54424e-26)
(0.009594549 -0.0007310412 -2.872442e-25)
(0.009196112 -0.001191283 2.902283e-24)
(0.009828484 -0.0002521115 0)
(0.009921702 -0.000497974 -4.11434e-25)
(0.01011934 -0.0002060782 0)
(0.01002732 -0.001025883 -2.213556e-25)
(0.01018307 -0.0002028043 0)
(0.009240977 -0.000219867 -2.018012e-24)
(0.01039883 -1.67255e-05 0)
(0.01069103 -0.0005911653 7.48774e-25)
(0.01010237 -0.0005354094 2.719661e-25)
(0.009270525 -1.476309e-05 0)
(0.008774173 0.0006289791 -1.340897e-24)
(0.009163482 -0.0004138579 0)
(0.009801547 -0.0002618181 5.279215e-25)
(0.01019926 -0.0001175111 0)
(0.009889573 -0.0001245011 -3.626093e-25)
(0.009786375 -0.0001232443 -5.517099e-25)
(0.009966934 -0.0003456907 3.126174e-25)
(0.009685836 9.626945e-05 0)
(0.009137428 0.0007047063 2.824162e-24)
(0.009685979 -0.0001386635 4.53951e-25)
(0.01030447 -0.001012423 -4.584884e-26)
(0.00955069 -0.0002171976 8.627963e-25)
(0.009875022 -0.000210344 3.351569e-25)
(0.009710137 -0.0003598345 0)
(0.009983914 -0.0002264365 -2.193446e-25)
(0.01031844 -0.0006560143 0)
(0.01028008 -0.001097553 -1.808292e-24)
(0.008821785 0.0007827548 8.879373e-25)
(0.01000484 -0.0001844316 -8.952925e-26)
(0.01002444 -0.0002169247 0)
(0.01006148 -0.000241865 -2.00494e-26)
(0.009245323 -0.0005704437 4.558301e-25)
(0.00950186 -0.001339078 0)
(0.009968464 -0.0004556993 3.155837e-25)
(0.00977243 0.0001337313 5.454581e-25)
(0.01010405 -0.0003172912 9.207737e-26)
(0.009786251 -0.000882455 0)
(0.0100402 -0.0001871147 5.596568e-26)
(0.009671599 7.121914e-05 -7.488196e-25)
(0.009696244 0.0004199221 0)
(0.01003699 -0.0002342168 -3.511673e-26)
(0.009526701 -0.0003403068 0)
(0.009829129 -0.000436417 -6.148593e-25)
(0.01002084 -0.001212915 0)
(0.01029773 -0.0006195432 7.33451e-26)
(0.01007824 -0.0005261703 4.029914e-25)
(0.009674186 -5.645552e-05 6.634455e-25)
(0.009557344 8.668257e-05 3.20456e-26)
(0.01017541 -0.0005126506 1.383856e-25)
(0.009754364 3.815696e-05 0)
(0.009721005 -0.0006286078 0)
(0.009901004 -0.0002204758 -1.184439e-25)
(0.009880343 -0.0005643765 -1.500263e-24)
(0.009731837 -2.061204e-05 -4.029714e-25)
(0.009677641 -0.0001029252 0)
(0.009510291 0.000280349 9.271183e-25)
(0.01052167 -0.0002715036 0)
(0.01007256 -0.0006416297 -5.1856e-25)
(0.00959204 0.0005315151 2.953463e-24)
(0.009968883 -0.001073823 0)
(0.009795565 -0.0001879798 8.770373e-25)
(0.009480602 -0.0003805989 0)
(0.009920639 -0.0003238062 4.085322e-26)
(0.009882035 -0.000276124 0)
(0.009726284 0.0002676401 0)
(0.01016605 -0.0002170568 -3.207671e-25)
(0.009690823 -0.0002438149 0)
(0.01012406 -0.0009740398 0)
(0.01011707 -0.0006632081 0)
(0.009732179 0.0001620314 9.197736e-25)
(0.009777941 0.0001486955 0)
(0.008997498 0.001048948 -1.460946e-24)
(0.01034665 -0.0003603714 6.433739e-25)
(0.0101522 -0.0004668901 0)
(0.01043042 -0.0003492388 -1.533682e-24)
(0.009588634 0.0001510883 0)
(0.009333056 -0.0003123888 1.122297e-24)
(0.00999394 -0.0004885893 -9.757696e-25)
(0.009489479 -9.301275e-05 -2.587373e-24)
(0.009970672 0.0009235398 1.356972e-24)
(0.009994388 -0.000154657 2.301179e-25)
(0.009937736 -0.000207564 2.346612e-25)
(0.01001087 -0.00017317 1.092762e-25)
(0.01000849 -0.0002000013 5.264344e-26)
(0.00996802 -0.0001788008 0)
(0.009940078 -0.0001506281 0)
(0.009720248 -9.807798e-06 -2.296141e-26)
(0.01030278 -0.0004438934 0)
(0.009123781 0.0002641028 0)
(0.009273957 0.0003964679 -8.76707e-26)
(0.009592817 0.0004245754 0)
(0.009957228 -0.0001423741 2.628358e-25)
(0.00985355 -0.0001755099 4.754215e-25)
(0.009816006 -0.0001141673 0)
(0.009776666 -0.0007231193 -1.95644e-24)
(0.01064059 -0.0004131885 -2.872666e-24)
(0.009422497 0.0007847211 -7.727147e-26)
(0.009709925 -0.0009798498 0)
(0.01032985 -0.0003540942 -5.694235e-26)
(0.009635997 0.0001479704 0)
(0.009295763 0.0008895685 5.4479e-26)
(0.009253394 0.0004346648 -1.837144e-24)
(0.009788583 1.791755e-05 1.720207e-25)
(0.00983412 -0.0002356713 -1.47965e-25)
(0.01034568 -0.0002913208 5.021903e-25)
(0.00977024 0.0001012576 4.761093e-25)
(0.009751893 0.0001184505 -8.717026e-25)
(0.01038942 -0.0005336465 -2.420434e-25)
(0.009426015 -0.0002700483 1.567726e-24)
(0.00944249 0.0008536612 -3.654421e-25)
(0.01044157 -7.357372e-05 1.642299e-24)
(0.009706038 -0.0002171791 0)
(0.009744892 -9.553334e-05 -1.491965e-24)
(0.009927016 -0.0001586592 -4.172509e-25)
(0.01061453 -0.000746515 -1.426067e-25)
(0.009581438 -5.949219e-05 0)
(0.009934186 -0.0002506655 3.471552e-25)
(0.01000097 -0.0003773215 -1.442576e-25)
(0.01010299 -0.0002933181 0)
(0.0101013 -0.0003762445 -5.530185e-26)
(0.0094306 -6.175412e-06 1.193482e-24)
(0.009738648 0.000306436 7.533758e-25)
(0.01038965 -0.0009165884 1.49623e-24)
(0.01011615 -0.0003353614 0)
(0.00994045 -0.000289508 -3.518728e-25)
(0.009831331 -0.0005180721 0)
(0.01020546 -0.0002609721 3.787772e-25)
(0.009778248 -0.0003650692 3.830867e-25)
(0.009965471 -0.0001252744 -1.431648e-25)
(0.0101484 -0.0001113664 0)
(0.008813665 -0.0002935522 3.251838e-24)
(0.00839631 -0.0001407623 -1.542398e-24)
(0.009844219 -0.0005850194 -4.960533e-25)
(0.009878346 -0.0003255839 5.562782e-25)
(0.01023703 -0.0004009383 4.854822e-25)
(0.01011547 -0.0001924382 -3.34623e-25)
(0.01005993 -0.0002545085 -3.382175e-26)
(0.0106376 -0.0007018066 -4.537418e-25)
(0.01004489 -0.0002366588 2.492283e-26)
(0.009853874 -0.001224968 -1.447753e-24)
(0.01063801 -0.0003730728 0)
(0.009424473 6.012788e-05 -1.386882e-24)
(0.0100328 -0.0001568374 0)
(0.008776018 0.0003894081 1.046118e-25)
(0.01047946 -0.0004755057 2.431286e-25)
(0.01057977 -0.0002165859 2.99079e-24)
(0.009623081 0.0002648194 0)
(0.01043509 -0.0008040358 0)
(0.009614912 0.0003012621 1.329589e-24)
(0.009671665 0.0003217867 5.896513e-25)
(0.009679081 0.0004990178 -8.703479e-25)
(0.009661102 0.0002866249 0)
(0.00946891 0.0003065378 0)
(0.00977643 0.0003529713 0)
(0.01040393 -0.0003820461 -2.095883e-25)
(0.008779691 0.0002063354 0)
(0.00889083 0.0003303096 0)
(0.008816811 0.0001726864 -2.627547e-24)
(0.00990979 -0.0003062463 -2.468086e-25)
(0.008941534 0.0004265787 -1.958668e-24)
(0.009916493 -0.0001779567 -1.230319e-26)
(0.01050997 -0.000477275 0)
(0.009670826 -0.000136259 -8.515058e-25)
(0.009453626 -1.915196e-05 1.180529e-24)
(0.009820284 -0.0002106887 -6.668991e-25)
(0.009207271 0.0004405803 1.811478e-24)
(0.009725458 3.97685e-06 -7.955203e-25)
(0.01013379 -0.000269539 -2.166358e-25)
(0.009914397 -0.0001873122 0)
(0.009896361 -0.0002726908 6.506755e-25)
(0.009523665 -0.0002799367 -1.220076e-24)
(0.01002388 -0.0002926714 2.241064e-25)
(0.01023833 -0.0003259829 1.61548e-26)
(0.008987665 -0.0008936627 -2.2056e-24)
(0.01015946 -0.0009579075 0)
(0.008809368 -0.000576696 3.468552e-24)
(0.009467782 0.0006456411 0)
(0.008932842 -0.001161253 -4.319135e-24)
(0.008502725 -0.0001989959 -1.032987e-24)
(0.009676314 0.001028794 0)
(0.009851751 -0.0006964117 1.190614e-24)
(0.0106439 -0.0008222431 -4.591222e-26)
(0.009619524 -0.0003835037 -3.911145e-25)
(0.009942106 -0.0001716889 2.267709e-25)
(0.01052179 -0.000589929 -1.324738e-25)
(0.008829955 -0.001075172 -3.476341e-24)
(0.008601788 0.0003255672 3.557932e-24)
(0.01028017 -0.0003540148 -7.209266e-25)
(0.009821729 -0.0001597302 -7.539126e-25)
(0.01014709 -0.0002603992 -2.715529e-25)
(0.01008272 -0.0002396 -1.11327e-25)
(0.009425756 -0.0002245479 0)
(0.01017853 -0.0003216273 -7.625382e-26)
(0.01029833 -0.0008983077 -8.907796e-26)
(0.01002692 -0.0003098156 1.425454e-25)
(0.00990459 -0.001127058 0)
(0.009705441 -0.0001523352 0)
(0.009770025 0.0002391849 -8.757424e-27)
(0.009787841 0.0002311168 0)
(0.01029165 -0.0003671627 1.030007e-24)
(0.009749214 0.0002169625 -2.31487e-25)
(0.00975265 0.0001588479 -5.248641e-25)
(0.009563928 0.00027976 0)
(0.009457875 -0.0008148152 -1.46198e-24)
(0.009814227 -0.0005073314 1.52322e-24)
(0.009637287 -0.0004943784 7.412673e-25)
(0.009904976 -0.0003778592 2.86388e-25)
(0.009963291 -0.0004310196 -7.466136e-25)
(0.01004528 -0.001147079 -1.572272e-24)
(0.009832646 -0.0001050721 0)
(0.00967708 -0.0008320657 2.445574e-24)
(0.01048288 -0.0006932421 7.707898e-26)
(0.00991886 -0.0002660701 9.225498e-25)
(0.01030775 -0.0005033477 5.080591e-25)
(0.01021519 -0.000711221 7.277006e-26)
(0.009720419 2.292771e-05 0)
(0.01070383 -0.0004354808 0)
(0.009729906 0.0007392841 2.233384e-25)
(0.009392446 0.0002880329 -4.741269e-25)
(0.009867399 -0.0001280563 0)
(0.009942635 -0.0003935968 2.144544e-25)
(0.01013029 -0.0004399057 3.313945e-26)
(0.009958039 -0.0001509901 1.012279e-25)
(0.01010642 -0.0002856947 0)
(0.01065073 -0.0004940556 1.553638e-24)
(0.009574237 0.0003584358 0)
(0.009712955 -7.177948e-05 0)
(0.009075891 -9.532475e-05 0)
(0.0100287 -0.0001531255 0)
(0.009355162 0.00031696 6.451201e-26)
(0.009763937 -3.876036e-05 -5.500435e-25)
(0.01011708 -0.0002846008 -4.40361e-26)
(0.009833552 -0.0001440584 -7.504973e-26)
(0.01071106 -0.0005492512 -1.363237e-24)
(0.01061545 -0.0008246549 3.801893e-26)
(0.0105725 -0.0007835615 0)
(0.009970824 -0.0001586154 2.051093e-25)
(0.009754636 -0.0001442505 0)
(0.01049705 -0.0005317297 0)
(0.009509391 0.0002389219 0)
(0.01016139 -0.0002495635 -1.045012e-25)
(0.009744236 -0.0004025334 7.767479e-25)
(0.009664832 0.0007657334 0)
(0.008422972 -0.001174674 5.961261e-25)
(0.009618864 -9.777623e-06 -6.23983e-25)
(0.009564591 5.530536e-05 0)
(0.009958343 -0.0001300572 2.532821e-25)
(0.009759081 0.0002724028 5.988417e-25)
(0.009468778 0.0001764736 1.168648e-24)
(0.009435402 1.809938e-05 3.752691e-24)
(0.009330361 8.518045e-05 2.527081e-24)
(0.009697549 0.0002344374 -7.090984e-25)
(0.009266287 0.0003299407 -1.294086e-24)
(0.009526744 0.0001462699 0)
(0.009924864 -0.0001386004 -2.585574e-25)
(0.009707329 -0.0004529815 -1.026859e-24)
(0.01052097 -0.0009437117 0)
(0.01042297 -0.0007604021 0)
(0.009887683 -0.0001749241 1.82656e-25)
(0.009990053 -0.0001610874 0)
(0.009975357 -0.0001569473 -1.838519e-25)
(0.009925532 -0.0001491923 -2.286065e-26)
(0.009928724 -0.0002295729 -4.633446e-25)
(0.009965327 -0.0001649659 -1.990526e-25)
(0.009996413 -0.0001978373 -1.275698e-25)
(0.009505103 -8.554173e-05 -1.63672e-24)
(0.01022674 -0.0001759346 -7.427437e-25)
(0.009730534 -0.0001499118 -9.145934e-25)
(0.009569311 -0.0005888598 -6.17416e-25)
(0.00985749 -0.0001608529 4.804685e-25)
(0.01034839 -0.0006841741 0)
(0.01056206 -0.0005747078 0)
(0.0105239 -0.0006242898 -7.822546e-25)
(0.009785907 3.682914e-05 0)
(0.01010343 -0.0002696575 0)
(0.00976107 0.0003999069 0)
(0.009778533 3.23783e-05 0)
(0.009791347 9.366197e-06 0)
(0.009991462 -0.0001719429 2.270778e-26)
(0.01002307 -0.0004784384 5.012653e-25)
(0.00955177 -9.604235e-05 0)
(0.01024229 -0.0003696441 0)
(0.01006468 -0.0001590585 -1.106677e-25)
(0.009850108 -0.0003582729 -9.435455e-25)
(0.009981721 -0.0003522806 4.56432e-25)
(0.009947539 -0.0003066173 -1.247586e-25)
(0.009918096 -0.0003374233 -6.05162e-25)
(0.009970226 -0.0002310796 -2.167957e-25)
(0.009316864 0.0003948425 6.845602e-25)
(0.01010326 -0.0001840518 0)
(0.01007049 -0.0002046947 2.367017e-26)
(0.01007717 -0.0002189891 -1.141086e-25)
(0.010551 -0.0004174312 0)
(0.009183043 -0.001279543 -6.143591e-27)
(0.009950686 -0.0002033552 5.773726e-26)
(0.01075831 -0.0004380127 -9.100027e-25)
(0.009964182 -0.000236169 -1.951767e-25)
(0.009624826 0.000513528 7.895278e-25)
(0.01003414 -0.0001933522 3.380596e-27)
(0.009741693 -0.0002852662 -4.395032e-25)
(0.009475134 0.0003532216 0)
(0.009878405 -0.0004299213 -3.530517e-25)
(0.01056734 -0.0004297984 0)
(0.009552156 0.0001169898 4.145889e-26)
(0.009735755 0.0001809548 0)
(0.009680627 -0.0002884385 0)
(0.009577681 -0.0001176563 9.328559e-25)
(0.0100811 -0.000493352 2.002709e-25)
(0.01003727 -0.0005945646 0)
(0.009218513 0.0009695937 3.064663e-24)
(0.009625744 0.0008503882 -2.019748e-24)
(0.01046943 -0.0004361397 -1.117194e-24)
(0.009861736 -0.0007360302 0)
(0.01028127 -0.0004190836 5.536444e-26)
(0.009807125 -0.0001350602 -1.016237e-24)
(0.009670978 -0.0005730973 3.946943e-25)
(0.009194829 -0.0009782158 9.174972e-26)
(0.009154741 0.0001367358 4.158518e-24)
(0.009808969 -6.286727e-05 9.08479e-25)
(0.009780055 -9.273199e-06 -3.952732e-25)
(0.00947702 0.0008307903 0)
(0.009413902 0.0001007872 -2.236361e-24)
(0.009655364 0.001203068 -3.42963e-24)
(0.01015201 -0.0004797573 0)
(0.0102118 -0.0002051056 -1.090542e-24)
(0.01019005 -0.0003306795 9.523742e-26)
(0.00991492 -0.0006930595 9.992427e-26)
(0.009616716 -0.0002735117 -7.971123e-26)
(0.009560739 0.0001345062 -1.372668e-24)
(0.009583249 0.0002007857 -1.383918e-25)
(0.009846662 0.001064141 3.946242e-24)
(0.01003985 -0.0002218816 2.676016e-27)
(0.01003535 -0.0001478397 0)
(0.009741328 0.0005273098 0)
(0.009770508 -0.0008536371 0)
(0.00977755 -0.0004787502 0)
(0.01000381 -0.0003993918 2.67744e-25)
(0.009794069 -0.0001139306 -7.036633e-25)
(0.009566993 0.0004262476 -3.107144e-25)
(0.01005003 -0.0004139234 0)
(0.01026834 -0.0009671814 -9.205582e-25)
(0.009599178 7.280431e-05 -1.240119e-24)
(0.01060284 -0.000592122 1.363835e-24)
(0.0106067 -0.0004888883 0)
(0.01011138 -0.0008801976 -8.647446e-25)
(0.01014009 -0.0006256107 -3.675387e-25)
(0.01048379 -0.0001314561 2.171325e-24)
(0.009542758 -0.0005026482 1.624627e-24)
(0.009715653 -4.032767e-05 -5.546425e-25)
(0.009591096 -0.0004411441 -1.755033e-24)
(0.009583095 1.515493e-05 1.230464e-24)
(0.01052524 -0.0004493162 -1.58837e-24)
(0.01040307 -0.0003460349 0)
(0.009972457 -0.0001277233 0)
(0.009607742 -3.861333e-07 -6.546603e-25)
(0.01032818 -0.0005001313 0)
(0.01031796 -0.0005836517 5.969679e-26)
(0.0102674 -0.0004809711 5.605851e-25)
(0.01025183 -0.000452741 -2.122309e-25)
(0.01017419 -0.0002521484 0)
(0.00995227 -0.0004581863 -6.13921e-25)
(0.01033105 -0.0004738444 0)
(0.009764864 0.0004451059 -1.189518e-25)
(0.008986092 -0.0006694593 1.825814e-24)
(0.009899177 -0.0004647605 1.18355e-24)
(0.00992816 -0.000478775 0)
(0.009910258 -0.0002664029 -5.357821e-25)
(0.01019302 -0.0005756047 -2.330714e-25)
(0.01042972 -0.0002055028 -1.331084e-24)
(0.01010143 -0.0001204832 8.372539e-26)
(0.01009053 -0.0002782582 0)
(0.008799689 -9.745834e-05 3.656437e-24)
(0.01003481 -0.0003920233 -2.05334e-25)
(0.01007198 -0.0004500604 0)
(0.009332958 -0.0005482397 0)
(0.009222199 -0.0004934781 1.523326e-24)
(0.01041141 -0.0006014796 1.443138e-25)
(0.009913886 -0.0009982971 4.508865e-25)
(0.009950759 -0.0001342237 -2.087174e-25)
(0.01027124 -0.0003141993 0)
(0.009781449 -8.598188e-05 1.47304e-24)
(0.01033992 -0.001141541 0)
(0.009744972 -0.0001871879 6.197483e-25)
(0.00945727 0.0005187504 0)
(0.009184589 -0.0006999796 5.646324e-24)
(0.009491805 -0.001077262 -1.579676e-25)
(0.009782796 0.0001046125 -1.949039e-25)
(0.009868071 -0.0001772087 4.529327e-26)
(0.01024806 -0.0003487807 4.961909e-25)
(0.01011638 -0.0001488663 6.178214e-25)
(0.009841787 -0.0002182307 -9.015564e-25)
(0.009679562 0.0003103153 -1.059229e-24)
(0.009904005 -0.0002869199 0)
(0.009868971 -0.0002216178 1.362045e-25)
(0.00998224 -0.0001377896 0)
(0.01059863 -0.0004606849 -3.700337e-25)
(0.01067005 -0.0003250987 2.80116e-24)
(0.009834579 -0.0005648666 0)
(0.009989414 -0.0001907198 2.715419e-25)
(0.009602355 0.0004033701 7.646272e-26)
(0.009296674 -2.360126e-05 -1.795995e-24)
(0.01008107 -0.0003493078 0)
(0.01005281 -0.0006291918 -4.387261e-25)
(0.01009167 -0.0001677564 2.435878e-25)
(0.009285441 -0.0004072443 9.32978e-25)
(0.01019073 -0.0009078423 -1.56752e-24)
(0.009652669 0.001125842 -1.946083e-24)
(0.009812199 -0.0002286245 0)
(0.009801053 -0.0004758782 0)
(0.01007419 -0.0002389313 0)
(0.009111516 0.0005343044 0)
(0.009884953 -0.0001345221 -2.23353e-25)
(0.008140143 -0.0001750868 -1.124494e-24)
(0.009846158 -0.0002016651 -6.285712e-25)
(0.009691195 0.0004663842 -5.424947e-25)
(0.009025918 -0.0002426795 -5.278756e-24)
(0.009799273 -0.0001251459 0)
(0.01026168 -0.001000717 7.42686e-25)
(0.009381763 -9.303962e-05 1.427713e-24)
(0.009590309 -0.0003200263 1.195299e-24)
(0.00971659 3.297842e-05 2.168616e-25)
(0.008518912 0.0006254145 -9.751484e-26)
(0.009656946 -9.756529e-06 -4.024981e-25)
(0.00964021 -3.005857e-05 -4.395115e-25)
(0.01070482 -0.0004805334 2.131666e-25)
(0.00977869 0.0002626415 -4.569475e-25)
(0.01001421 -0.0001494301 0)
(0.009957648 -0.0009031028 0)
(0.009742516 0.0003682096 -1.022846e-24)
(0.009771742 1.297099e-05 -8.56432e-25)
(0.0103865 -0.000426503 -3.660123e-25)
(0.00954514 0.0005115816 -1.69246e-25)
(0.009747241 -1.466951e-05 -5.929069e-25)
(0.009851168 -0.0002221418 -4.667984e-25)
(0.009764724 6.421973e-05 0)
(0.009677444 -4.34183e-05 -6.513617e-25)
(0.009633423 -5.984109e-05 5.059199e-25)
(0.0105012 -0.0005118508 0)
(0.0104743 -0.0005611292 -8.28185e-26)
(0.01030055 -0.0003591427 -3.03479e-25)
(0.009935171 -0.0005852534 -4.572524e-25)
(0.009908204 -0.0005355085 9.04075e-25)
(0.009764551 0.001058089 -2.532633e-24)
(0.009473917 0.0001373374 2.369205e-24)
(0.00976215 0.000482024 0)
(0.00945591 0.000576657 -1.938844e-25)
(0.009488195 0.0005198201 -1.595447e-24)
(0.009883497 -0.0002199005 -8.032111e-26)
(0.01052477 -0.0005547914 0)
(0.009919097 -0.0002289012 -2.981506e-25)
(0.009190453 0.0006542609 -3.074475e-24)
(0.009052726 -0.0006200861 3.279716e-24)
(0.009873451 -0.0001298641 -4.171358e-25)
(0.009880377 -0.0001601661 1.916553e-27)
(0.009866387 -0.0002471974 7.009834e-25)
(0.008346492 -0.0005343196 0)
(0.009809208 -2.84486e-05 0)
(0.01009538 -0.0002470021 0)
(0.01055525 -0.0003732483 -7.096745e-25)
(0.009675611 0.000427262 5.359309e-25)
(0.009684335 -0.0002320231 8.607892e-25)
(0.009706273 3.35019e-05 -2.050461e-25)
(0.009281328 0.001252073 0)
(0.009526036 0.001227445 1.291291e-25)
(0.009735017 0.0007038944 -1.915896e-25)
(0.009780371 0.0008204755 -3.058204e-24)
(0.009831962 -0.0002863219 1.348095e-25)
(0.009739806 0.0003291055 0)
(0.00976072 -0.001034562 2.36038e-24)
(0.009803539 -0.000342276 6.252211e-25)
(0.009730246 -0.0003938358 1.2826e-24)
(0.009651966 -0.0003641291 1.730913e-26)
(0.009732307 -0.000310323 1.389906e-24)
(0.009053592 6.949105e-05 -2.431386e-24)
(0.00979643 -0.0004169791 8.304323e-25)
(0.009639104 -0.0004133577 0)
(0.009946798 -0.0003570464 -9.160228e-25)
(0.009941435 -0.0001969284 0)
(0.009381984 0.0003152198 0)
(0.0107225 -0.0004311197 2.495895e-25)
(0.01031338 -0.0003634712 5.948777e-25)
(0.01060067 -0.0002990648 0)
(0.009760854 -0.0003043691 1.324637e-24)
(0.009744479 -0.0002997282 0)
(0.01058361 -0.0008555925 3.234136e-25)
(0.009765507 -0.0003191785 -1.531137e-24)
(0.01001273 -0.0006266521 0)
(0.009482906 -0.0003288075 1.446712e-24)
(0.009685215 -0.0003816139 1.391685e-24)
(0.009666131 -0.0003401713 -1.54709e-24)
(0.008850652 0.0006114598 1.318588e-24)
(0.01014524 -0.0006999066 0)
(0.009381044 -0.001103787 -2.761085e-24)
(0.01010988 -0.0004353381 2.784771e-26)
(0.008968788 -0.0007143728 -4.938534e-24)
(0.00890939 -0.0005435366 1.388737e-24)
(0.009087713 -0.0007657112 0)
(0.009812062 -0.00121083 -1.889079e-24)
(0.009796713 -0.0004436815 1.094706e-24)
(0.009773216 6.724786e-05 0)
(0.009770107 8.586495e-05 0)
(0.009765424 -0.0002051485 3.168816e-25)
(0.008220195 1.367296e-05 -2.025531e-24)
(0.009716446 8.270209e-05 6.274918e-25)
(0.009666233 -0.0002721942 5.45608e-25)
(0.008981235 0.0005015817 1.684508e-24)
(0.009746243 0.0004689195 0)
(0.009403578 0.000912433 -1.422751e-25)
(0.009452876 -0.0003341953 1.403412e-24)
(0.009781703 -3.585882e-05 0)
(0.008437792 -0.0009781936 -1.091126e-24)
(0.008839777 -0.0008627213 -3.777075e-24)
(0.008739037 -0.0009717965 0)
(0.009435396 0.0006978214 4.390371e-25)
(0.009235091 0.0006487866 1.681714e-24)
(0.01055143 -0.0005542514 7.023897e-25)
(0.008580624 0.0004952533 -2.468462e-24)
(0.01016624 -0.0005382305 0)
(0.009147602 -0.0005230338 -2.128302e-24)
(0.009358247 0.0008519124 -2.413905e-24)
(0.009739431 -0.000135524 6.577837e-25)
(0.009120828 0.0003366808 0)
(0.01023981 -0.001097496 1.764342e-24)
(0.01043039 -0.0009004303 -6.723891e-25)
(0.009472744 -0.0007131261 -6.001839e-25)
(0.008766936 -0.0002757908 -2.327986e-24)
(0.01022998 -0.000822864 -3.26785e-27)
(0.009643285 -0.0001433514 -5.196309e-26)
(0.009827243 -0.0001321163 6.439608e-25)
(0.01015874 -0.000275912 -6.706991e-26)
(0.009862325 -0.000149426 -5.86762e-25)
(0.009380582 -0.00029036 0)
(0.009423107 -0.0003694439 -2.525272e-24)
(0.00830253 -0.000586299 0)