/*--------------------------------*- C++ -*----------------------------------*\
| =========                 |                                                 |
| \\      /  F ield         | OpenFOAM: The Open Source CFD Toolbox           |
|  \\    /   O peration     | Version:  2406                                  |
|   \\  /    A nd           | Website:  www.openfoam.com                      |
|    \\/     M anipulation  |                                                 |
\*---------------------------------------------------------------------------*/
FoamFile
{
    version     2.0;
    format      ascii;
    arch        "LSB;label=32;scalar=64";
    class       volVectorField;
    location    "0.08";
    object      U;
}
// * * * * * * * * * * * * * * * * * * * * * * * * * * * * * * * * * * * * * //

dimensions      [0 1 -1 0 0 0 0];

internalField   nonuniform List<vector> 
4541
(
(0.01000199 -5.007755e-05 1.523382e-23)
(0.01030781 -0.0002091853 -4.56124e-24)
(0.01090374 -0.0006384458 0)
(0.01171553 -0.0006787803 0)
(0.01019753 -0.0002871886 -4.132587e-24)
(0.009707687 -0.0005520279 0)
(0.01015034 -0.0003680833 1.334417e-23)
(0.01016379 -0.0002904643 -3.287952e-23)
(0.009591273 -0.0003573765 1.874294e-23)
(0.01050041 0.0001461592 7.15758e-24)
(0.009690532 -0.0006550325 2.180998e-23)
(0.01024301 -0.000508717 -1.321146e-23)
(0.01047652 -0.0001259817 1.034596e-23)
(0.01000183 -0.0002704047 2.489019e-24)
(0.01151964 -0.0008287823 0)
(0.01050625 0.000398052 1.183866e-26)
(0.01011149 0.0006311999 1.403543e-24)
(0.00987352 0.0006190184 -1.063603e-24)
(0.01016887 0.0009151204 -5.081182e-24)
(0.01107375 -0.001268315 5.854449e-24)
(0.01175553 0.0006279024 0)
(0.01029514 -0.0003562866 -1.562762e-23)
(0.01033125 0.0002912981 0)
(0.008999557 -0.000440841 5.504359e-23)
(0.01057267 -0.0008225314 0)
(0.0101532 -0.0003103377 1.030747e-23)
(0.01001671 -0.0003015846 -6.197479e-24)
(0.01013343 -0.0002531176 6.247558e-24)
(0.009594591 -0.0002453594 6.836057e-24)
(0.01051623 -0.0001570846 0)
(0.01004846 -0.0002501093 -2.712947e-23)
(0.01000492 -0.0002807317 -2.940843e-24)
(0.01045119 0.0001152462 -3.151933e-24)
(0.009802377 -0.000328178 -1.101302e-23)
(0.0104639 -0.0004656466 0)
(0.01029916 -3.932789e-05 0)
(0.01080034 -0.0005820109 0)
(0.01070807 -0.0002415788 -2.16324e-24)
(0.009966474 -0.0002787177 -4.832804e-23)
(0.009788625 0.0008235345 3.227144e-24)
(0.01032244 -3.955981e-05 0)
(0.009492538 -0.0002734181 -1.404367e-23)
(0.01036428 -0.0001699163 -3.495721e-24)
(0.01034415 9.436746e-05 -8.157583e-25)
(0.01049694 -8.598239e-05 1.004061e-23)
(0.01050571 0.0001383003 -7.998124e-24)
(0.01065102 -0.0002120852 9.67704e-24)
(0.01004872 0.001771429 0)
(0.01087162 -0.000934193 0)
(0.01008033 -0.0003288296 4.021231e-27)
(0.009970485 -0.0004712953 0)
(0.01027126 0.0001412779 0)
(0.01006223 0.0003762269 3.466586e-25)
(0.01004506 -0.000335501 3.934828e-24)
(0.01023835 0.0005404544 -2.818009e-25)
(0.01002286 -0.0007850904 2.875519e-23)
(0.01003327 -0.0001206986 8.701762e-24)
(0.009780891 -0.0001099835 3.011178e-24)
(0.01090131 0.0007245003 4.074215e-25)
(0.01043504 -0.0003930319 6.577531e-24)
(0.009965074 -0.0003289382 0)
(0.01041829 -0.0002842725 0)
(0.01066401 0.001216528 0)
(0.007820829 -0.001788731 -1.273821e-23)
(0.009629707 -0.0007943528 6.549675e-23)
(0.01104211 -0.002024183 -1.439458e-23)
(0.009895193 -0.0003220137 -1.237517e-23)
(0.01050694 -3.421393e-05 1.805254e-23)
(0.01028713 0.0002237793 -1.803504e-24)
(0.01118923 0.001434498 0)
(0.01046308 0.0008500494 1.198477e-24)
(0.01081758 0.0004746917 -7.99554e-25)
(0.01011417 -0.0003368098 0)
(0.01083781 0.0001555929 2.579785e-24)
(0.009721407 -0.0002495811 3.398281e-23)
(0.01097769 0.0001825203 2.915348e-24)
(0.009983676 0.0004207872 -1.217428e-24)
(0.009678292 0.001050832 -5.230258e-25)
(0.01122232 -0.0004318357 4.995592e-24)
(0.009871374 -0.0001530403 -2.583094e-23)
(0.01117526 0.00104141 0)
(0.01135019 -0.0006781981 -5.495689e-24)
(0.009904367 -0.00044724 1.601388e-25)
(0.01064853 -1.929686e-05 8.195519e-24)
(0.01002306 -0.0001987647 0)
(0.01039703 -0.0005235094 1.05952e-23)
(0.01046791 -0.0003784495 0)
(0.01148531 0.001144657 9.797744e-24)
(0.01025893 0.000797442 -1.454166e-24)
(0.01057627 0.0004173183 0)
(0.01003025 -9.375111e-05 -1.677694e-23)
(0.0109638 0.001585166 -7.441162e-24)
(0.009712513 0.0007676169 0)
(0.01007151 0.0005959062 0)
(0.01011079 -0.0004913102 2.621884e-23)
(0.009682488 0.001198155 5.129829e-24)
(0.01054018 -0.0009163579 9.990602e-24)
(0.01034738 -0.0001908682 -7.452961e-24)
(0.01025318 -0.000273726 -2.557872e-23)
(0.01025988 -0.0004415177 -6.163608e-24)
(0.01017317 -0.000674857 1.480644e-23)
(0.01025674 -5.524233e-05 0)
(0.009796424 -0.0003001097 -1.082059e-23)
(0.01142132 0.0003510563 1.825009e-24)
(0.01027988 6.514865e-05 7.135551e-24)
(0.01004138 -0.000694236 -5.082448e-23)
(0.00969404 0.0006747237 3.605161e-24)
(0.01039064 -5.616455e-05 -2.175348e-23)
(0.01045255 -0.0002566711 -9.283849e-24)
(0.01077464 -5.192887e-05 -4.460688e-24)
(0.01023042 -0.000241954 5.855518e-24)
(0.009984218 -0.0001404382 -3.023048e-23)
(0.01042016 0.0001136275 0)
(0.01022631 0.0002140097 -1.077571e-24)
(0.009891748 -0.0002651138 7.694694e-26)
(0.0101036 -0.0009512958 -2.3373e-23)
(0.01006308 -0.0004288112 0)
(0.01020376 0.0006953887 0)
(0.01000022 -0.0004151516 3.197041e-23)
(0.009485238 -0.0003919044 2.591257e-23)
(0.01028375 9.599911e-05 5.677254e-24)
(0.010274 0.0002097673 0)
(0.01092014 -0.001953731 -2.795156e-23)
(0.01117024 0.000551344 -3.775196e-24)
(0.01014575 0.0004270405 3.585307e-25)
(0.01042551 -0.0002349046 0)
(0.008979267 -0.001426737 0)
(0.008744575 -0.00200409 3.407059e-23)
(0.01029329 -0.0002462215 -2.196212e-24)
(0.009598157 -0.0007591977 4.620793e-25)
(0.009723478 -0.0003554941 1.301353e-23)
(0.01034615 -0.0005896427 9.720888e-24)
(0.01007109 -0.0003564425 3.108114e-23)
(0.01044783 -0.000224875 -1.090653e-23)
(0.01121902 -0.001441642 -3.854236e-24)
(0.007842453 -0.001180622 0)
(0.0105381 0.000148324 5.569186e-24)
(0.01012576 -0.0002958577 -4.999097e-26)
(0.01121622 -0.00150945 1.6764e-23)
(0.01053863 -7.430206e-05 -5.891548e-24)
(0.01008831 -0.0003229836 1.141547e-23)
(0.01004617 0.0006997171 1.519178e-24)
(0.009597955 -0.0004894402 -1.992023e-23)
(0.01002978 0.000376261 -8.250501e-25)
(0.01050422 -0.0003218718 -7.127211e-24)
(0.009654315 -0.001290696 5.567326e-24)
(0.009474209 -0.0005176808 -1.69336e-23)
(0.009977488 -0.0002489973 0)
(0.01173595 0.0002347688 0)
(0.009850311 -0.0002533907 -7.247067e-24)
(0.01015009 0.0003084299 -2.779452e-26)
(0.01136538 -0.0005247481 -9.620654e-24)
(0.01008615 -0.0005248904 0)
(0.01062865 -0.0007745569 2.692829e-25)
(0.01018774 -0.0002980766 -9.481959e-24)
(0.009631555 -0.0003541054 0)
(0.009641518 -0.000559761 1.070266e-23)
(0.009974037 0.001093233 -7.122817e-24)
(0.009996219 -2.105531e-05 -1.874115e-23)
(0.01068742 -0.0001515395 7.30005e-24)
(0.0100562 -0.0004431342 -2.362897e-23)
(0.01024882 -0.0004031836 -1.39898e-24)
(0.009409234 -0.0008614242 1.847858e-26)
(0.0103739 0.001029745 5.844653e-24)
(0.0105225 8.210632e-05 6.275588e-24)
(0.01034602 0.0002627012 0)
(0.009725271 -0.001028814 0)
(0.01053446 -0.0005234889 1.232191e-23)
(0.01088983 -0.002062437 1.626762e-23)
(0.009843955 -0.0002172431 -2.923159e-23)
(0.009806622 -0.000220147 -1.649869e-23)
(0.01019499 0.000264248 0)
(0.01103026 0.001160256 0)
(0.01023063 0.0002838614 -4.944397e-25)
(0.01012013 0.0003902602 0)
(0.01053763 -0.0001592593 -7.908077e-24)
(0.009610828 0.000678961 0)
(0.01019571 -0.0004554682 8.919208e-24)
(0.01076722 -0.0007449277 -7.596413e-24)
(0.009719612 -0.0002847944 1.146205e-23)
(0.01035339 0.0005766421 -2.430102e-25)
(0.008473626 -0.002169765 -2.317199e-23)
(0.01064829 0.0001321242 3.541918e-24)
(0.01016105 -0.0002449438 2.278158e-23)
(0.01073146 -0.00115521 0)
(0.01039737 0.0002745431 -1.202343e-24)
(0.01041322 -5.318456e-05 7.692248e-24)
(0.009897608 -0.0003456937 -4.380392e-23)
(0.01048042 9.04881e-05 0)
(0.009789428 -0.0002545215 7.226123e-24)
(0.01037426 -0.0004726457 0)
(0.01174017 -0.0001202986 0)
(0.01023804 0.000231983 6.348401e-25)
(0.01079854 0.0003203651 -8.496038e-25)
(0.01035384 0.0007081538 -1.390976e-24)
(0.01048435 -1.975981e-05 0)
(0.0101338 -0.0005544496 -1.321957e-23)
(0.009874843 0.001240384 -3.29278e-24)
(0.009663735 0.001133565 -6.500479e-24)
(0.01010063 0.0004142172 -6.046884e-25)
(0.01079153 -8.478225e-06 -2.146127e-25)
(0.008436736 -0.0009218652 -2.162899e-26)
(0.01017872 -0.0003842404 -1.347928e-23)
(0.01040754 0.0004018434 0)
(0.01031957 9.090535e-05 5.972755e-24)
(0.01026023 0.0003447417 0)
(0.01180215 -0.0008656018 -9.340129e-24)
(0.01023597 0.0005627796 0)
(0.01016893 -0.0006140207 0)
(0.01057521 -0.0002757258 -5.188042e-24)
(0.01003547 -0.0002806757 0)
(0.01069126 0.001141893 0)
(0.01048687 -0.0002979022 0)
(0.01073426 -0.001398698 -1.291381e-23)
(0.009173451 -0.0006912707 2.994816e-23)
(0.01031275 -0.0005229156 0)
(0.01060261 0.0004575319 1.85132e-24)
(0.01036434 -0.0002281964 0)
(0.00880687 -0.001578433 -3.294643e-23)
(0.009422146 -0.001332496 -2.030447e-24)
(0.00713844 -0.001067352 7.021948e-23)
(0.01056199 0.0003444307 -1.338037e-24)
(0.009807838 -0.0003572779 -3.038418e-23)
(0.0101066 -0.000703111 -1.005541e-23)
(0.01061488 0.0001879668 1.522599e-23)
(0.009998062 -0.0002976047 0)
(0.0106439 0.0003872756 1.14981e-24)
(0.01047688 0.0003096241 1.361888e-24)
(0.01008283 0.0004959019 0)
(0.009900368 -0.0001725775 0)
(0.01025538 -0.0003764902 -1.537953e-25)
(0.01015758 -0.0002184706 8.951529e-24)
(0.01040684 0.0002489824 2.543687e-24)
(0.009752076 -0.000333542 2.495194e-23)
(0.008699772 -0.002326947 0)
(0.01030531 0.001886248 0)
(0.01167355 -0.0009508553 5.701874e-24)
(0.0104352 -8.732868e-05 2.724646e-24)
(0.009998758 -0.000232521 -2.059594e-23)
(0.009918928 -0.0003562873 -2.927917e-23)
(0.0101506 -0.0002156233 2.87253e-23)
(0.01009748 0.0003417263 1.648037e-25)
(0.01099002 -0.001587083 -1.0435e-23)
(0.009843833 -0.0003964263 0)
(0.00989691 -0.0004998294 0)
(0.01014857 -0.0002414197 2.908829e-23)
(0.01023692 -0.0003399631 2.141084e-23)
(0.01039301 -0.0003230869 3.391443e-24)
(0.01082989 0.001028637 1.100901e-24)
(0.01016778 -0.0001887214 -1.525157e-23)
(0.0100051 -0.0002990723 0)
(0.009470667 -0.0005952546 6.902873e-24)
(0.01028627 0.0004293234 -1.539924e-25)
(0.01043027 0.0002105653 0)
(0.009779494 -0.0008505543 0)
(0.01017677 -0.0001129387 0)
(0.009789362 -0.0003598434 2.195448e-23)
(0.01013576 0.0003244154 1.797543e-25)
(0.01001237 0.0003771659 1.101232e-24)
(0.0103875 0.0004135105 2.92239e-25)
(0.009756412 -0.0002865727 -3.287927e-23)
(0.01018922 -0.0003662639 -6.361137e-24)
(0.01039552 0.0001796988 5.018847e-24)
(0.008461142 -0.00131235 0)
(0.01011986 -0.0003306795 1.553588e-23)
(0.01155549 0.0009654045 3.223901e-24)
(0.01012112 -0.0002595812 1.180455e-24)
(0.009941414 0.001498678 0)
(0.01054121 1.512857e-05 5.543731e-24)
(0.01022635 0.0008962819 -3.504757e-24)
(0.01132985 0.001223217 -8.815712e-24)
(0.01048411 -0.0001987164 -1.415499e-23)
(0.00961843 -0.000392084 1.56134e-23)
(0.009945691 -0.0003917221 -1.408867e-23)
(0.01045378 0.0002339966 7.237092e-24)
(0.01037734 0.0003275273 -1.816889e-24)
(0.009573534 -0.002474661 -1.726593e-23)
(0.009969082 0.0005400408 3.969495e-24)
(0.01077411 -0.0006573288 1.711345e-23)
(0.0105289 -0.0006718386 -1.449796e-23)
(0.01025879 -0.000982302 2.364387e-23)
(0.01014677 0.0007218717 0)
(0.01004477 -8.951491e-05 1.591347e-23)
(0.01063843 -0.0002465899 0)
(0.01018966 0.0003887357 2.321212e-25)
(0.01132369 0.0001332794 6.219282e-24)
(0.01029222 -5.085985e-05 8.798992e-24)
(0.009966335 0.000715807 3.498558e-24)
(0.01124849 0.001196902 0)
(0.009775697 0.0009333586 4.30346e-24)
(0.01009988 -0.0003776788 9.320658e-24)
(0.01012504 -0.00030231 1.280057e-23)
(0.009667921 -0.0005898102 0)
(0.01000767 0.001122622 7.485176e-24)
(0.01032541 0.001079261 2.127204e-24)
(0.01012215 -0.0002831263 9.972067e-24)
(0.01005498 -0.0007373502 -2.470556e-23)
(0.01010511 -0.000222086 6.191214e-24)
(0.009927395 0.0007603628 0)
(0.01047517 1.079095e-05 -3.385266e-24)
(0.01031212 0.0005045081 1.021597e-25)
(0.009899501 -0.0006647971 -3.251683e-23)
(0.0101855 -0.0002328461 0)
(0.01077978 -0.0001665382 -1.722261e-23)
(0.01051608 -6.759887e-05 2.048907e-23)
(0.009210012 -0.0004512489 7.887192e-26)
(0.009386141 -0.0004530607 2.789285e-23)
(0.009939557 0.0006933802 -3.171385e-24)
(0.01012268 0.0003449406 -1.427856e-25)
(0.01022208 0.0005084975 7.835652e-25)
(0.01054346 -0.0002575645 -1.12755e-24)
(0.01046928 0.0001125914 3.177259e-24)
(0.009978681 -0.0002351957 -1.510202e-23)
(0.01051832 0.000230639 0)
(0.009816019 -0.001935217 3.751837e-23)
(0.009898891 -0.0001302359 0)
(0.01015151 0.0003753225 0)
(0.009503081 -0.0002998596 0)
(0.01031869 0.0002842542 0)
(0.007871428 -0.0005397921 0)
(0.01069963 0.0001348518 0)
(0.01154754 -0.000715837 2.1339e-24)
(0.01039809 0.0002077066 3.64972e-24)
(0.0103122 -0.0002321998 -2.313896e-23)
(0.01003327 -0.001290976 -2.993933e-23)
(0.01006097 -0.0003180102 9.242168e-24)
(0.01033931 -4.136058e-06 -2.125054e-25)
(0.01026968 -0.0003955052 1.395864e-23)
(0.01025304 -0.0002899202 4.463077e-26)
(0.009889386 -0.0005285024 1.846067e-23)
(0.01021815 -0.0002141921 -1.937316e-24)
(0.01040476 0.0004397648 -1.385409e-24)
(0.01048521 0.0005288386 0)
(0.0101385 -0.0004130387 -1.74609e-23)
(0.0101947 -0.0003551957 4.27992e-24)
(0.01042472 -0.001059769 1.441171e-23)
(0.009799465 -0.001228919 0)
(0.009958867 -0.001199475 -3.292495e-23)
(0.01046833 0.0002772091 2.962688e-24)
(0.01040679 8.362525e-05 0)
(0.01017706 -0.0003946983 0)
(0.01088468 -0.002155309 0)
(0.009836956 -0.0004528905 8.833224e-24)
(0.01017193 -0.0001992248 0)
(0.008182591 -0.001390276 -2.002675e-23)
(0.01097396 -0.000442247 -5.04235e-24)
(0.010401 0.0001405431 9.178564e-24)
(0.01045998 -0.0004946968 1.39783e-23)
(0.01020436 0.0003632504 -5.175441e-25)
(0.01073262 -0.000788337 1.156145e-24)
(0.01043282 0.0004954699 -8.899821e-25)
(0.01056425 4.069161e-05 -5.986924e-24)
(0.01099363 0.0007040889 0)
(0.01002242 -0.0003277576 -2.06749e-23)
(0.01046169 0.0006959703 3.695008e-25)
(0.01026833 -0.0002902487 0)
(0.009892929 0.000546138 0)
(0.01017529 0.0005233308 0)
(0.01006474 -0.0002521249 -1.097832e-23)
(0.01032898 0.0003034075 5.280293e-25)
(0.01178137 0.0005991815 -1.583806e-25)
(0.01164236 -0.0001210305 0)
(0.01073716 -0.0001109638 5.147829e-24)
(0.01007648 -0.0002267382 6.9688e-24)
(0.01125348 0.0003458785 -4.969652e-24)
(0.01001959 0.001205187 -8.427848e-25)
(0.01141448 -0.0009983331 -1.205738e-23)
(0.01001276 -0.0003480785 1.880448e-23)
(0.01027198 -8.466579e-05 -6.794233e-24)
(0.0104784 0.0006178391 0)
(0.01030611 0.0006134066 1.207467e-24)
(0.007938149 -0.00163717 -1.852123e-23)
(0.01172627 0.0002411548 -1.277093e-24)
(0.01043268 0.001011732 -3.05501e-24)
(0.01042117 -0.0003310734 0)
(0.01057278 -0.001289489 0)
(0.01027974 -0.0003815321 -1.382525e-25)
(0.01015181 -0.0005206264 1.578502e-23)
(0.01086011 -6.648573e-05 -1.254001e-24)
(0.01037581 -0.0005876964 2.044404e-23)
(0.009939253 -0.0003497821 0)
(0.01088785 0.0009293376 -2.065748e-24)
(0.009795102 0.0007390987 4.814177e-24)
(0.01030831 0.00022136 -1.749186e-24)
(0.01103108 0.00122463 -5.248535e-24)
(0.009045302 -0.00259577 2.072511e-23)
(0.01008019 0.0003904243 0)
(0.01071591 -0.0002694049 4.899661e-25)
(0.009832178 -0.0005285536 -2.307591e-23)
(0.009909185 -0.0003292793 2.366107e-23)
(0.01084745 3.546329e-05 4.324153e-24)
(0.01102728 -1.728433e-05 -7.141367e-25)
(0.009656368 0.0007014748 0)
(0.009818208 -0.0001700666 -4.399919e-23)
(0.01022837 -0.0002577212 1.270517e-23)
(0.009797518 -0.0004643173 4.755043e-24)
(0.009848533 -0.0003151442 3.849744e-26)
(0.01025794 0.0007280612 1.802585e-24)
(0.01044812 -5.820869e-05 -1.683002e-23)
(0.01022041 -0.0002280969 0)
(0.01071815 -2.001032e-05 -2.981546e-24)
(0.01112907 -0.0001381563 -2.298272e-24)
(0.01007708 -0.0004291827 0)
(0.01021325 -0.0007125555 1.082446e-23)
(0.009668006 -0.0003050343 -2.013253e-23)
(0.01102463 0.0008316146 1.185241e-25)
(0.01083076 0.0009749355 6.144942e-24)
(0.01063723 -3.466838e-05 -4.416827e-24)
(0.01057177 0.000534631 0)
(0.01030282 -0.0002213765 1.14094e-23)
(0.01060702 -9.794729e-05 4.294856e-24)
(0.01001891 0.0009604262 0)
(0.01040364 -0.0002483931 0)
(0.00982898 -0.001594796 0)
(0.009845129 -0.0006653626 1.944346e-23)
(0.01054787 -9.466713e-05 1.82523e-23)
(0.01037206 0.0002004613 5.268663e-24)
(0.01090977 -4.03683e-05 6.65191e-24)
(0.01141691 0.0001746618 6.885288e-24)
(0.01114902 -0.0005577027 -1.088741e-23)
(0.009237675 -0.001016447 0)
(0.008833131 -0.0007591099 -4.669217e-23)
(0.01026292 0.0001766903 3.775904e-24)
(0.009759376 -0.0001669415 2.743351e-23)
(0.009962839 -0.0005934175 -2.143561e-23)
(0.01132718 -0.0003340254 -3.624065e-24)
(0.01144525 -0.0005036367 8.335463e-24)
(0.01125391 -0.0002270737 1.238764e-23)
(0.01003901 -0.0003974961 1.782137e-23)
(0.01026424 -0.002292287 0)
(0.01046847 0.0002345423 -3.563758e-24)
(0.009777227 -0.0006426692 0)
(0.01110321 -0.001082739 0)
(0.01016018 0.0003532849 -2.776545e-25)
(0.01031787 5.900207e-05 -4.325082e-25)
(0.01001893 -0.0004309011 -9.14059e-24)
(0.01145433 0.0002504701 -5.857897e-24)
(0.009340745 -0.0009394322 -7.711744e-24)
(0.01043146 -0.0003618041 -1.170176e-23)
(0.01042904 -0.0001756158 4.942365e-24)
(0.01019035 0.0006670412 1.667693e-24)
(0.009777983 -0.0002159786 2.975185e-23)
(0.01057828 -0.0007124431 2.305856e-23)
(0.01154508 0.0007285322 -1.199613e-23)
(0.01023758 -0.000448482 5.828361e-24)
(0.01054138 -0.001164953 1.423166e-23)
(0.01048313 -7.175573e-05 2.304587e-23)
(0.009076608 -0.001743554 0)
(0.01007488 -0.0003172244 -2.20555e-23)
(0.010247 8.842915e-06 0)
(0.01076427 1.140619e-05 -4.237296e-24)
(0.0100983 -0.0002671009 0)
(0.009982029 0.00046852 0)
(0.01055294 0.0004891055 4.813574e-26)
(0.01038449 0.0002168481 0)
(0.009987239 -0.00028502 3.656002e-23)
(0.01006594 -0.0007827507 0)
(0.01027845 -0.0004318889 0)
(0.009834176 -0.0007517186 -2.02846e-23)
(0.0100059 -0.0006051479 2.411785e-23)
(0.01055357 0.0008969657 1.933006e-24)
(0.01053995 0.0003386323 -1.410367e-24)
(0.01019126 -0.0007599259 1.389572e-23)
(0.01025597 0.0005703087 0)
(0.01084867 -0.000485767 6.260089e-24)
(0.01024131 0.0007608064 -2.23506e-24)
(0.01083458 0.0006207907 4.661074e-25)
(0.01053182 -0.000335244 -2.320892e-23)
(0.01128518 -0.00118098 -4.122589e-24)
(0.01073473 -0.001088661 0)
(0.01057659 5.173953e-05 7.372011e-24)
(0.01074895 0.0003502114 -7.894721e-25)
(0.0110053 0.0002073057 0)
(0.009319123 -0.0003883274 -3.793432e-23)
(0.01027411 -0.0002270285 0)
(0.01052664 0.0003786662 0)
(0.01030981 0.001691511 -8.100335e-24)
(0.01010445 -0.0003348995 6.394213e-24)
(0.01001518 -5.249463e-05 -2.516692e-23)
(0.01012521 -0.000183509 0)
(0.01026622 0.0001873127 0)
(0.009751296 0.001335089 5.673406e-25)
(0.01019954 -0.0003074251 7.848888e-24)
(0.009898531 -0.002744584 1.471464e-23)
(0.01065711 9.743675e-05 2.910953e-24)
(0.009781385 -0.0003749046 2.152553e-23)
(0.009989297 -0.0004236566 -2.125752e-23)
(0.01033588 -0.0007117545 -1.690337e-23)
(0.009847387 -0.0001063259 -1.687382e-23)
(0.009783612 -7.317251e-05 -7.553981e-27)
(0.01011032 -0.000138884 0)
(0.01049056 0.0002476448 0)
(0.01078182 -0.0001110659 -7.338802e-26)
(0.01037945 9.887307e-05 -6.348954e-24)
(0.01030603 -0.000179199 -1.736564e-23)
(0.008600281 -0.0004541909 1.572553e-23)
(0.01004393 -0.0002250684 1.096193e-23)
(0.009794903 -0.0002751891 0)
(0.01121617 -0.0005583666 1.751909e-23)
(0.01040751 -0.0001946355 0)
(0.01048423 -0.001075654 1.62263e-23)
(0.01017428 -0.0002191865 1.316021e-23)
(0.01006043 -0.0002620364 2.084328e-23)
(0.009247975 -0.000346503 1.466165e-23)
(0.01022167 0.0002815228 -1.7795e-25)
(0.01023756 -0.0002021451 1.145151e-23)
(0.00995065 -0.0008362368 -3.312375e-23)
(0.01073951 -0.0004767904 -4.028947e-24)
(0.01003529 -0.0002215069 -4.646386e-25)
(0.01141552 -0.0014996 0)
(0.01053142 0.0009404323 -2.158864e-24)
(0.01056816 0.0001220482 -2.49403e-24)
(0.01018077 0.0003280886 -6.310693e-25)
(0.01047341 -0.0008699763 1.138477e-23)
(0.01035466 -0.000747191 0)
(0.01132458 0.001164347 0)
(0.01029814 0.0002151677 0)
(0.0100859 -0.0002678082 3.673711e-23)
(0.01022749 0.0002426582 -1.870467e-24)
(0.01044167 -0.00241889 -3.237438e-23)
(0.01004842 -0.0003281778 0)
(0.0107816 0.0004611288 0)
(0.009651186 -0.001538162 0)
(0.009841708 -0.002396313 0)
(0.01015333 -0.001083379 -4.352261e-23)
(0.01006776 -0.00146083 0)
(0.009962918 -0.00088794 7.570776e-24)
(0.01011159 -0.0001592877 6.882923e-24)
(0.01010057 -0.0002899678 1.228657e-23)
(0.0101654 -0.000359008 1.236505e-23)
(0.01041944 -0.0007768534 -1.981973e-23)
(0.006874977 -0.001246087 4.18087e-23)
(0.01044276 -0.0004523874 3.842063e-25)
(0.01042641 2.121218e-05 0)
(0.01033138 0.0002414479 0)
(0.009985075 -0.0003832563 0)
(0.0104555 3.193079e-05 1.426e-24)
(0.01030973 -0.0005675196 7.164633e-24)
(0.01012668 -0.0002696876 -1.688783e-23)
(0.00884976 -0.0006756227 3.141161e-23)
(0.01029764 0.00020421 -5.971446e-24)
(0.01040583 -0.0002710707 0)
(0.0104408 -0.0007208026 0)
(0.009600141 -0.0004225097 -2.935423e-23)
(0.008924917 -0.0006420553 -2.939071e-23)
(0.009993913 -0.0002495754 -1.034438e-23)
(0.01065301 0.0007519197 5.656342e-25)
(0.01009469 -0.0001997025 7.357901e-24)
(0.007438031 -0.002523182 -7.833795e-23)
(0.009502575 -0.002200281 -3.847021e-23)
(0.01040497 -0.0001605658 -8.108986e-24)
(0.01012628 -0.0002363997 5.175756e-24)
(0.01043438 -0.0003269323 8.210672e-24)
(0.009750363 -0.0001222168 -4.967203e-23)
(0.01030941 0.0001404693 -6.705265e-24)
(0.009989423 -0.0002118681 1.267653e-23)
(0.01032287 -0.002535032 -2.775829e-23)
(0.01029104 0.0003021105 -1.876004e-24)
(0.01043644 -0.0001579521 -9.53345e-24)
(0.009835242 -0.0005426754 2.165175e-23)
(0.01074256 -8.776023e-05 -9.977304e-24)
(0.01001222 -0.000526498 0)
(0.01062932 -0.0005069356 -9.137052e-24)
(0.009093133 -0.0004939673 0)
(0.0102791 -0.0002747995 0)
(0.009971754 0.0009727172 0)
(0.01116041 0.000319196 2.117807e-24)
(0.01116342 0.0006776414 0)
(0.01042818 -0.0002095929 -3.530351e-24)
(0.01087369 0.000878288 1.471302e-24)
(0.01049756 0.0006321376 7.071771e-26)
(0.01072924 0.0003777636 3.756478e-24)
(0.009161694 -0.00218743 -3.961014e-24)
(0.01015192 -0.0003027417 -1.789079e-23)
(0.01037423 0.0003092469 -1.120951e-25)
(0.01018211 0.0004139975 0)
(0.0102158 0.0003266206 0)
(0.01018746 0.0003742565 -5.288278e-25)
(0.01022194 0.0003807754 -5.013133e-25)
(0.01053157 -0.0001150827 0)
(0.01072817 -0.000221271 8.344058e-24)
(0.01001356 -0.0001333644 -1.289745e-23)
(0.01046574 0.0001345509 1.146363e-24)
(0.01047424 0.000120181 0)
(0.01009558 -0.0002572031 7.473443e-24)
(0.01048678 0.0001625141 0)
(0.01015823 0.0006638237 -1.558962e-24)
(0.009407763 -0.0005527968 0)
(0.01029936 -0.0001975876 1.469604e-23)
(0.01003802 -0.0003623268 1.668635e-24)
(0.0100359 -0.0003002162 1.812281e-24)
(0.009977239 0.0004050056 2.438602e-24)
(0.01010797 0.0003513922 1.19697e-27)
(0.01023376 -0.0008366754 1.071659e-25)
(0.01006077 -0.0009404367 5.371771e-23)
(0.01124969 -0.00114961 -1.045452e-23)
(0.01024784 8.309595e-05 -2.409971e-24)
(0.009580659 -0.0005233271 3.798456e-23)
(0.01066512 -7.435436e-05 -1.125784e-23)
(0.01002746 -0.0002301215 1.443277e-23)
(0.01003092 -0.0002435996 -1.499913e-23)
(0.01035181 0.0002244644 3.531469e-24)
(0.01031048 -8.678791e-05 1.173443e-23)
(0.01011462 0.0004253767 5.577555e-25)
(0.01001277 0.0004052528 0)
(0.01025187 0.0001158594 -1.265942e-24)
(0.01060106 -0.000390341 0)
(0.01024766 -0.0002979876 1.450918e-23)
(0.0101017 -0.0004418028 -1.093692e-23)
(0.009990376 0.0005352317 0)
(0.009859739 -0.0003720698 2.58073e-23)
(0.01004219 -0.0003044329 0)
(0.01133591 0.001368621 -4.149267e-24)
(0.01038938 0.0002060992 -1.731717e-24)
(0.01013091 -0.0003743192 0)
(0.01013999 -0.000300089 -2.952011e-23)
(0.01006047 -0.0006187095 0)
(0.01024151 0.000206536 -1.77531e-24)
(0.01172687 0.0001017705 1.486374e-24)
(0.009818888 -0.000381311 0)
(0.009425195 -0.000596774 8.0318e-25)
(0.01076784 0.0006468214 0)
(0.01000741 -0.0003231303 3.524438e-24)
(0.009779531 -0.0003454139 -3.423055e-23)
(0.009907896 -0.0003083913 0)
(0.01027222 0.0001657774 -3.232927e-24)
(0.009735386 0.0006894913 -3.511763e-24)
(0.009064055 -0.000307349 1.600331e-23)
(0.009911668 -0.000248462 -1.828823e-23)
(0.009696247 -0.0003829469 3.135946e-23)
(0.01014847 0.0003325516 3.043207e-25)
(0.01021913 0.0004524258 0)
(0.0104273 -0.0001425907 3.276972e-24)
(0.009800681 -0.002223996 1.334181e-23)
(0.01038426 0.0001838498 -3.503734e-24)
(0.01060126 -0.0003673507 0)
(0.01007858 0.001107857 -8.785158e-24)
(0.01045973 -0.0002997349 1.868795e-23)
(0.01038254 0.000251732 5.190014e-25)
(0.01020584 -0.0005083289 -1.046906e-23)
(0.01099357 0.001388046 2.956565e-24)
(0.009955876 -0.0002727673 1.364847e-23)
(0.01002856 -0.0005095912 0)
(0.01026824 0.0002299519 3.122633e-24)
(0.01059622 0.0003983078 -2.409749e-24)
(0.01023224 -0.0003164927 0)
(0.01018804 -0.0003146176 2.126123e-23)
(0.009699412 -0.0003219832 -3.671672e-23)
(0.009781353 -0.0003023043 -4.01344e-26)
(0.01028527 -0.0003122455 -5.311914e-25)
(0.01030401 0.0003528008 1.233759e-24)
(0.01078074 -0.0003723317 2.910703e-24)
(0.0103351 0.0006782654 0)
(0.01016822 -5.967631e-05 0)
(0.0103224 0.0001611226 -5.216897e-24)
(0.01014292 -0.0001734534 -1.452909e-23)
(0.009714391 -0.0001561514 -3.559558e-23)
(0.01063199 0.0005024619 7.668531e-26)
(0.01000978 -0.0004567257 0)
(0.01028612 -0.0001158542 0)
(0.01086437 0.0005405155 3.294729e-25)
(0.01145684 -0.0002700166 7.127921e-24)
(0.01004366 0.0004848226 -1.370354e-24)
(0.01076843 -0.0002509408 -6.447189e-25)
(0.009945942 -0.0002797166 0)
(0.01000291 -2.373998e-05 0)
(0.01085146 0.0003551468 0)
(0.01095191 0.0002657066 8.562199e-25)
(0.00981467 -0.0001882864 3.856637e-23)
(0.00975691 -0.0001833183 -4.97385e-23)
(0.01030266 -0.000395907 -3.941024e-23)
(0.01104854 -5.236497e-05 8.22083e-24)
(0.01037806 4.613679e-06 -5.267993e-24)
(0.01039789 9.778639e-05 4.082451e-24)
(0.01029455 4.167689e-05 -8.684844e-24)
(0.01053661 -5.3421e-05 1.594152e-23)
(0.01074622 9.86497e-05 -8.22341e-24)
(0.01063378 3.065086e-05 7.962805e-24)
(0.009905612 -8.228029e-05 0)
(0.009642552 -0.0001850635 -2.159434e-23)
(0.01047159 0.0002082521 -4.512315e-24)
(0.009906262 -0.0002609784 1.761813e-23)
(0.01043195 0.0008999353 0)
(0.0102408 0.0002517087 0)
(0.01000241 -0.0003151401 1.32338e-23)
(0.00998065 -0.0003047339 1.129444e-25)
(0.01008339 -0.0001281949 -2.567785e-23)
(0.009926411 -0.0004044927 2.225613e-23)
(0.0101377 -0.0004422243 3.921828e-23)
(0.009752755 -0.0005003742 2.107854e-23)
(0.009752343 -0.0004729397 -5.675696e-23)
(0.01050188 0.00139356 -8.633115e-25)
(0.01080539 0.001795609 8.284124e-24)
(0.01000584 0.0004478182 1.503016e-24)
(0.01039435 0.000807821 0)
(0.01019195 0.0005605175 0)
(0.01028356 0.0003227805 1.54364e-24)
(0.01032151 0.0003767798 2.372942e-24)
(0.01009967 0.0005988634 -1.2831e-24)
(0.009972716 -0.0004894385 9.89223e-24)
(0.01012236 -0.0002535012 -5.294636e-24)
(0.01007657 -0.0002535888 -3.239931e-26)
(0.01005506 -0.0002728334 1.238449e-23)
(0.01077529 0.0001533682 1.988845e-24)
(0.01022108 0.0005268934 3.000467e-25)
(0.01038879 -0.0006902565 0)
(0.01028298 -0.0003333655 1.229158e-25)
(0.01026765 -0.0003222003 3.77749e-24)
(0.009930751 -0.000265666 0)
(0.01046112 -0.0001338626 0)
(0.01049254 -8.723282e-06 0)
(0.01012996 -0.0003312413 1.454961e-23)
(0.009998227 0.0005147201 1.075712e-24)
(0.009846664 -0.0005163121 0)
(0.01008163 0.0004751988 0)
(0.01014946 0.0005301522 1.137518e-24)
(0.01058552 -0.0002899646 -4.92838e-26)
(0.01017402 -0.0001445261 0)
(0.009420721 -0.001069655 -3.676309e-23)
(0.009981216 -0.0004619311 0)
(0.01023147 7.878796e-05 -2.06342e-25)
(0.01045019 0.0001984456 -3.677669e-24)
(0.0104515 0.0001743401 0)
(0.01066084 0.0002441489 -1.747368e-24)
(0.01038047 0.0002395401 -5.669051e-25)
(0.01028084 0.0002453154 4.170652e-24)
(0.01029514 0.0002790822 0)
(0.01027454 -0.0001901847 -1.008869e-23)
(0.01050193 0.0003500976 2.350869e-24)
(0.01054577 0.0002099851 0)
(0.009889032 -0.0002783388 -2.17494e-23)
(0.01002122 -0.0003626914 1.65879e-23)
(0.009992146 -0.0002668064 -2.707734e-24)
(0.01089147 -0.0004115873 0)
(0.01087144 -0.0006012426 -1.424027e-23)
(0.01060097 6.103041e-05 -5.300232e-24)
(0.01061998 5.789705e-05 5.11359e-24)
(0.01044561 -0.0002464023 1.617026e-23)
(0.01051834 -0.0003183896 5.714732e-24)
(0.01005899 -0.0003752131 -1.559848e-23)
(0.008120496 -0.0008286317 0)
(0.01036273 -0.0003300912 -8.853939e-24)
(0.01035078 -0.0003618199 8.21292e-25)
(0.01025201 -0.0003084342 -1.150754e-23)
(0.01034132 -0.0003084935 2.011729e-23)
(0.01022963 0.0002362016 -1.110593e-24)
(0.01027654 -0.0004089684 -8.307992e-24)
(0.01033886 -0.0005222985 0)
(0.01030032 -0.0006973707 0)
(0.01008693 0.0004206587 1.364001e-24)
(0.01010733 0.0003659676 0)
(0.0100655 0.0005720447 0)
(0.01003934 -0.0001999685 -1.275165e-23)
(0.01018921 0.0002750965 0)
(0.01015257 0.0002969389 -5.997934e-25)
(0.01134779 -0.0008532438 0)
(0.01110755 -0.0008217557 1.331941e-23)
(0.01043892 -0.0003133785 -8.795111e-24)
(0.01182014 -0.0005029176 2.176971e-24)
(0.01165744 -0.001224054 1.896752e-23)
(0.01114296 -0.001161957 1.135469e-23)
(0.01141641 -0.001565522 -1.406388e-23)
(0.0101909 0.0003092976 -1.586501e-24)
(0.009916771 -0.000120022 0)
(0.00983573 -0.0001585305 1.861056e-23)
(0.008278324 -0.0002931042 -7.280961e-24)
(0.01057797 0.0004463502 -2.537966e-24)
(0.01010123 -0.0002969447 -1.248024e-23)
(0.01044036 0.0004339062 0)
(0.01047259 0.000563239 0)
(0.009800791 -0.0006607792 0)
(0.01011811 -0.0002161751 2.066879e-23)
(0.008709018 -0.001237497 0)
(0.01026727 0.0002886278 0)
(0.0105108 -0.00159755 3.661264e-23)
(0.01164967 0.0009109961 -5.567188e-24)
(0.01033106 -0.0002989409 -2.652221e-23)
(0.01031426 1.708351e-05 -1.822008e-24)
(0.01063609 -0.0002867672 0)
(0.01018383 0.0007253697 0)
(0.01133236 0.001023281 1.962832e-24)
(0.01029987 -0.0005431096 0)
(0.01003126 -0.0003773583 2.384711e-23)
(0.009985953 -0.0003592023 0)
(0.01069103 -0.000191875 -2.318076e-24)
(0.009754818 -0.0009203585 -2.474294e-24)
(0.01083393 0.0003201402 0)
(0.01006607 -0.0001869971 -3.97857e-23)
(0.0100041 -0.0004849835 0)