/*--------------------------------*- C++ -*----------------------------------*\
| =========                 |                                                 |
| \\      /  F ield         | OpenFOAM: The Open Source CFD Toolbox           |
|  \\    /   O peration     | Version:  2406                                  |
|   \\  /    A nd           | Website:  www.openfoam.com                      |
|    \\/     M anipulation  |                                                 |
\*---------------------------------------------------------------------------*/
FoamFile
{
    version     2.0;
    format      ascii;
    arch        "LSB;label=32;scalar=64";
    class       volScalarField;
    location    "0.3";
    object      p;
}
// * * * * * * * * * * * * * * * * * * * * * * * * * * * * * * * * * * * * * //

dimensions      [0 2 -2 0 0 0 0];

internalField   nonuniform List<scalar> 
4536
(
-1.886164e-05
2.889375e-05
-1.773113e-06
-1.692411e-05
4.255629e-05
4.503343e-05
2.940378e-05
2.737384e-05
5.313619e-08
3.593288e-05
-6.281995e-06
6.973307e-07
-8.851416e-06
3.621941e-05
2.977362e-05
1.627568e-05
3.38672e-05
-2.530496e-06
4.02639e-05
4.518737e-05
2.591623e-05
2.64679e-05
3.630211e-06
2.73893e-05
1.593058e-06
4.817458e-05
2.474907e-05
2.738501e-05
-1.510463e-05
7.316477e-06
1.757668e-05
6.958444e-07
3.591514e-05
1.373904e-05
1.847626e-05
3.626818e-05
3.045119e-05
3.16585e-05
2.839755e-05
-5.588021e-06
2.27216e-05
1.271303e-05
2.971319e-05
4.61654e-05
-9.128402e-06
-2.042942e-05
2.791371e-05
1.604424e-05
-3.468111e-06
3.670327e-05
2.48993e-05
4.168845e-05
2.435777e-05
-1.876335e-06
4.959834e-05
3.692707e-05
4.124612e-05
1.921057e-05
-2.176771e-05
-2.386423e-06
4.280839e-05
2.387251e-05
-5.048853e-06
3.200109e-05
2.083964e-05
8.455752e-06
2.941728e-05
1.067422e-05
2.321945e-05
7.824956e-06
2.134958e-05
3.757547e-05
3.715103e-06
-1.170532e-05
2.612649e-05
1.164647e-06
1.021283e-05
3.105263e-05
-1.815471e-05
-7.721995e-06
2.024221e-05
5.771245e-05
8.143333e-05
-1.009266e-05
3.882913e-05
2.240291e-05
2.277063e-05
2.213819e-05
1.999557e-05
4.083195e-05
2.992341e-05
4.040683e-05
3.853031e-05
1.511967e-05
2.674466e-05
3.280661e-05
3.01037e-06
2.943828e-05
-2.047901e-05
7.862957e-06
-1.942516e-05
3.389995e-06
1.477932e-05
3.463829e-05
-1.034102e-05
-3.226498e-06
1.838755e-05
-3.080108e-06
2.332923e-05
1.520016e-05
6.825618e-05
3.326592e-05
2.591738e-05
3.935032e-05
3.098976e-05
3.902046e-06
-1.180983e-05
2.401384e-05
3.388202e-05
1.197638e-05
4.912513e-06
1.309878e-05
2.526057e-06
-8.13761e-06
1.153395e-05
4.763189e-05
3.497071e-05
1.917314e-05
8.500343e-06
3.789453e-05
-1.02614e-05
1.650494e-07
4.575872e-05
2.429595e-05
5.086979e-05
2.595717e-05
-1.137906e-05
7.081279e-06
2.74913e-05
1.53562e-05
3.39483e-05
-9.142835e-06
1.299111e-05
3.582413e-05
2.517675e-05
-1.80971e-06
9.919512e-06
2.939042e-05
2.938634e-05
4.933328e-05
2.645201e-05
3.093567e-05
-4.148974e-06
1.819611e-05
4.209777e-05
4.016913e-05
4.098706e-05
1.438063e-05
3.218418e-05
1.307136e-06
5.099752e-06
3.098977e-05
3.596524e-06
3.512945e-05
5.013495e-05
3.006295e-05
1.010799e-05
2.303899e-05
1.164273e-06
4.71637e-05
4.03462e-05
3.204481e-05
1.767534e-05
7.667081e-05
2.180243e-05
4.173612e-05
5.793213e-06
2.616586e-05
3.063378e-05
2.018404e-05
1.683016e-05
2.723213e-05
6.497159e-05
3.791955e-05
4.416501e-05
5.607095e-05
2.809961e-06
2.154995e-05
7.656779e-06
2.272665e-05
3.097908e-07
-1.482358e-05
2.045082e-06
-5.786333e-06
1.637452e-06
4.967228e-05
4.923176e-05
4.174087e-05
4.24886e-05
3.359387e-05
2.54878e-05
2.312985e-05
2.746893e-05
2.745158e-05
2.800827e-05
2.752881e-05
2.269092e-05
-8.395619e-06
2.897436e-05
3.738064e-05
-8.665213e-06
2.164619e-05
1.294164e-05
4.788087e-05
1.84408e-05
2.687113e-05
-4.474787e-06
-3.295002e-06
3.367143e-05
3.575808e-05
1.091983e-05
2.126049e-05
1.798109e-06
-2.310084e-06
2.011978e-06
2.15472e-05
2.40783e-05
-1.026669e-05
2.646934e-05
-6.171006e-06
1.847464e-05
-3.753648e-06
9.276328e-06
4.195001e-05
5.944977e-06
4.367188e-05
6.976504e-05
3.658985e-05
2.589052e-05
1.31222e-05
-3.53174e-07
4.099439e-05
1.453577e-05
1.889612e-05
4.2924e-05
7.89103e-06
6.630596e-06
2.204266e-05
2.921804e-05
1.198357e-05
-1.332213e-06
3.901396e-05
5.731407e-05
6.409646e-05
4.004487e-05
2.076455e-05
5.683822e-06
2.175818e-05
2.504058e-06
2.536852e-06
2.873555e-05
2.64629e-05
3.957619e-05
-1.156413e-05
6.963633e-05
4.167237e-06
1.315835e-05
1.458605e-05
4.402785e-05
3.57361e-05
-9.983548e-07
1.436566e-05
-1.535272e-05
3.865699e-05
2.651316e-05
9.852132e-06
1.039102e-05
1.084467e-05
3.84025e-05
4.569439e-05
1.93054e-05
3.245874e-05
5.438416e-05
3.01433e-05
-8.294083e-06
1.155306e-05
1.678891e-05
5.224698e-05
3.409656e-05
3.307738e-06
-1.93456e-06
-1.170022e-06
6.750171e-06
2.925169e-05
2.870484e-05
2.611895e-05
7.697606e-06
1.27872e-05
3.094862e-05
2.759417e-05
1.035924e-05
9.465066e-06
1.23536e-05
-3.659246e-06
-9.934922e-06
-1.200742e-05
-1.618277e-05
4.735638e-06
9.639676e-06
3.664215e-05
2.345414e-05
5.00161e-05
4.582859e-05
1.860031e-05
-9.058989e-06
2.534114e-05
3.269383e-05
3.782444e-05
2.699392e-05
2.563159e-05
2.573406e-05
2.663254e-05
2.606518e-05
2.427212e-05
3.986792e-05
5.005411e-05
1.595613e-05
2.835e-05
2.83263e-05
1.323253e-05
5.971597e-06
1.312739e-05
2.20732e-06
4.46055e-06
-1.24809e-05
6.878601e-06
2.866506e-05
3.67244e-05
3.175142e-05
3.294866e-05
8.299091e-06
4.314722e-05
1.331821e-05
-1.396642e-05
1.94478e-05
5.072429e-05
2.713267e-05
1.608519e-05
2.902438e-05
2.485667e-05
4.165607e-05
1.916911e-05
7.528134e-07
2.18708e-05
3.657352e-05
3.871817e-05
3.946388e-05
5.268189e-05
2.404863e-05
5.551051e-05
3.788588e-06
2.54085e-05
6.020981e-05
3.516828e-05
2.487366e-05
5.894022e-05
1.479044e-05
-1.674763e-05
7.775858e-06
6.114747e-06
4.483331e-05
3.050631e-05
8.47633e-06
3.542243e-05
2.499716e-05
-7.799495e-06
8.872452e-06
4.219194e-05
8.258468e-06
-1.787031e-06
3.920608e-05
3.269488e-05
2.910722e-05
2.642071e-05
1.288014e-05
3.883283e-06
4.56165e-06
4.018088e-05
5.534513e-05
7.139221e-05
3.83692e-05
8.607562e-06
-6.386573e-07
3.238699e-05
7.776242e-06
1.652127e-06
4.243736e-05
2.91717e-05
2.440504e-05
-1.191746e-05
4.268133e-05
-1.838897e-05
4.175771e-05
4.41756e-05
2.299817e-05
3.928234e-05
4.076526e-05
-2.730037e-06
4.187512e-06
2.476837e-05
-6.968461e-07
3.107707e-05
4.440766e-05
4.409556e-05
-6.79887e-06
3.908343e-06
1.434703e-05
1.942002e-05
1.678502e-05
-7.681036e-06
-6.409885e-06
4.864635e-06
3.423772e-05
8.746819e-06
2.909485e-05
2.734542e-05
2.006339e-05
1.997327e-05
2.495444e-05
2.523472e-05
3.837939e-05
1.295592e-05
7.632832e-06
-5.36003e-06
3.855505e-08
-4.543697e-06
3.20149e-05
4.983727e-05
-5.258413e-06
3.428649e-05
3.395455e-05
5.11133e-05
-1.546818e-05
2.343844e-05
2.805272e-05
4.602715e-05
-2.248069e-05
-8.666236e-06
-2.191783e-06
3.879496e-05
2.990167e-05
4.045638e-05
2.569496e-05
-1.058127e-05
3.438607e-05
4.066288e-05
4.800346e-05
3.050768e-05
3.812972e-05
3.591917e-05
6.827026e-06
1.710147e-05
1.681445e-05
3.344134e-05
2.674767e-05
4.027658e-05
3.538359e-05
3.319724e-05
4.225804e-05
3.968965e-05
3.081234e-05
4.108443e-05
4.230094e-05
1.453422e-06
2.048752e-05
3.624215e-05
5.625544e-05
3.554601e-05
3.352407e-07
1.001799e-05
4.645376e-05
3.271993e-05
-8.512636e-06
-7.2954e-06
1.575067e-05
1.934781e-05
4.932537e-05
1.876359e-06
1.019615e-06
3.081126e-05
-6.679908e-06
2.105218e-05
3.671971e-05
4.268473e-05
2.469304e-05
2.441237e-05
3.614339e-06
2.063262e-05
4.137022e-05
1.249393e-05
2.661842e-05
-1.20656e-05
3.395561e-05
2.764388e-05
4.441849e-06
1.658787e-05
5.469221e-05
-1.059466e-05
2.507401e-05
7.11282e-06
3.528949e-06
2.500831e-05
1.417236e-05
2.384814e-05
2.059391e-05
4.083512e-05
4.073097e-05
3.962865e-05
2.79175e-05
4.730154e-05
5.382339e-05
2.293749e-05
1.237325e-06
8.624884e-06
5.215545e-06
2.903987e-06
6.668599e-06
3.098349e-05
4.511923e-05
1.034654e-05
1.24304e-05
2.978076e-05
3.56937e-05
4.271635e-05
2.151899e-05
2.807419e-05
4.555055e-05
2.933656e-05
3.909144e-05
3.810439e-05
1.019971e-05
2.097951e-05
2.80996e-05
1.532926e-05
2.638214e-05
3.252968e-05
2.554471e-05
3.782799e-06
1.149785e-05
3.127158e-05
3.014905e-05
1.917e-05
2.47442e-05
6.56095e-07
1.145599e-06
-7.928366e-06
2.46132e-05
3.682412e-07
5.594096e-05
4.321763e-05
4.476442e-05
4.622549e-05
4.618095e-05
2.120181e-05
3.82792e-05
2.271448e-05
3.815744e-05
-2.068647e-06
2.868472e-05
-6.708255e-06
2.817937e-05
2.883503e-05
2.922434e-05
3.498349e-05
3.412195e-05
3.848184e-05
1.366034e-05
-2.692471e-05
2.459659e-05
2.590765e-05
-2.839315e-05
4.679034e-05
1.385198e-05
-6.206686e-06
2.961782e-05
2.552256e-05
3.224134e-05
3.672751e-05
2.69998e-05
1.758597e-05
2.801217e-05
9.590449e-06
6.116797e-06
2.375974e-05
-2.066746e-05
6.107595e-05
6.309507e-05
2.370209e-05
-1.066051e-05
2.668931e-05
3.204406e-05
2.532847e-05
3.919044e-05
4.609046e-06
2.357026e-05
1.886135e-05
3.95437e-05
3.69414e-05
1.680937e-05
4.323973e-05
4.044826e-05
2.972042e-05
2.978465e-05
-1.047862e-05
9.632005e-07
6.175747e-05
2.005296e-05
-1.974229e-05
9.118767e-06
2.136487e-05
1.977311e-05
-3.15083e-06
2.219026e-05
3.988164e-06
1.217738e-05
1.552212e-05
2.759451e-05
3.793901e-05
5.606246e-05
4.950007e-05
2.344192e-05
2.70363e-05
2.657753e-05
1.220224e-06
2.861758e-05
2.824072e-05
-9.529084e-06
-1.643411e-06
3.91669e-05
3.25674e-05
-2.642314e-06
9.840776e-06
-7.176896e-06
5.220825e-05
1.266029e-05
4.963818e-05
2.072021e-05
1.944977e-05
-3.935839e-06
8.399832e-07
4.136314e-06
3.707286e-05
2.957556e-05
-9.717041e-06
-1.218641e-05
-1.067487e-05
1.857323e-05
1.889229e-05
2.529802e-05
2.430198e-05
2.522795e-05
-7.317387e-06
-9.843555e-06
3.430886e-05
1.113357e-05
1.573118e-05
-8.465583e-06
2.708291e-06
1.529019e-05
4.079304e-05
-4.487357e-07
2.799429e-05
7.614379e-06
5.963902e-06
1.17146e-05
-1.829426e-05
2.290403e-06
-1.333157e-06
3.433238e-06
6.023815e-06
2.617527e-05
2.882854e-05
2.599827e-05
3.248942e-05
4.071543e-06
2.500899e-05
3.818334e-05
8.027207e-06
8.159518e-06
6.884694e-06
-4.327145e-06
9.934453e-06
1.950015e-05
7.375624e-06
8.675577e-06
1.530399e-05
2.291966e-05
3.138045e-05
2.444863e-05
2.408466e-05
-1.862111e-06
1.371812e-05
4.529375e-05
4.10656e-05
3.752843e-05
4.298733e-05
1.229374e-05
-1.209651e-05
5.405782e-05
3.46614e-05
2.634148e-05
4.503289e-06
1.898637e-05
4.227787e-05
4.418393e-05
8.937652e-06
5.537799e-07
2.826708e-07
-2.447213e-05
4.209706e-05
3.356172e-05
2.771317e-05
3.114811e-05
3.825778e-05
-1.928926e-05
-1.89308e-06
2.741289e-05
1.190742e-05
1.386663e-05
-1.324719e-05
1.93676e-05
2.178846e-05
-4.163464e-06
1.311899e-05
5.687831e-06
-3.571204e-06
1.251218e-05
5.872001e-05
1.267113e-05
4.537354e-05
8.292152e-06
5.565508e-05
-2.504372e-07
-4.719384e-07
-2.61691e-05
2.622418e-05
1.691474e-05
3.974124e-05
-8.643345e-06
3.634881e-06
3.815179e-06
3.731249e-05
-7.951922e-06
2.264218e-05
3.112638e-06
2.634038e-05
1.955688e-05
2.228851e-05
1.876255e-05
-1.616825e-05
4.051089e-05
2.116703e-05
3.46759e-05
1.668699e-05
-3.616274e-06
3.060167e-07
3.29006e-05
3.635964e-05
3.882095e-05
1.968926e-05
-5.615196e-06
4.806447e-05
1.182364e-05
4.359954e-05
2.404968e-05
3.691941e-05
4.285845e-05
3.408438e-05
-1.162592e-05
4.607499e-05
3.064495e-05
3.38313e-05
1.69985e-05
-9.936218e-07
3.585602e-05
2.132256e-05
2.925305e-06
4.488959e-05
2.20492e-05
7.547855e-05
3.875343e-05
3.270955e-05
3.593673e-05
4.009704e-05
4.473806e-05
4.557419e-05
3.840216e-05
4.116417e-05
2.592142e-05
3.956266e-05
2.695817e-05
2.743563e-05
4.142181e-05
3.447866e-05
1.653793e-05
-1.198408e-05
2.320875e-05
3.79033e-05
-1.306174e-05
3.267436e-06
1.79612e-05
2.558158e-05
2.974534e-05
4.354215e-05
2.056958e-05
-4.073226e-06
5.172372e-05
3.554619e-05
1.632489e-05
4.632566e-06
-8.527694e-06
3.693256e-05
3.849863e-06
2.909908e-05
2.607919e-05
2.767319e-05
3.310399e-05
5.280305e-05
2.269828e-07
2.900877e-06
-1.903817e-05
-1.390731e-05
2.25075e-05
2.614491e-05
9.776969e-06
9.553078e-06
6.623772e-06
-3.171549e-08
2.380244e-05
3.469491e-05
2.755422e-05
2.721499e-05
-1.394045e-05
3.316064e-05
1.737546e-05
-2.920651e-06
9.457251e-06
5.420989e-05
7.034371e-06
8.325175e-06
3.675715e-05
3.805765e-06
1.456813e-05
3.335496e-05
4.763671e-05
5.11987e-05
4.350902e-05
4.429147e-05
4.714132e-05
2.077103e-05
4.952874e-06
2.257068e-05
-1.321772e-05
4.094775e-05
2.831753e-05
2.32955e-06
5.79563e-05
-1.600461e-05
6.093695e-06
1.822515e-05
2.333207e-05
2.477836e-05
2.205633e-05
2.200232e-05
2.811125e-05
2.884602e-05
3.785405e-05
-4.196724e-06
-3.939828e-06
-1.607395e-06
7.49273e-06
-3.789042e-06
1.468588e-06
2.783218e-05
8.509355e-06
1.590727e-05
-7.556296e-07
1.409804e-06
3.100104e-06
2.702296e-05
3.190904e-05
3.302009e-05
3.200989e-05
3.13798e-05
1.572253e-05
1.794097e-05
-5.578734e-06
-5.96542e-06
2.642307e-05
2.449914e-05
2.485841e-05
2.320551e-05
1.926807e-05
-2.22279e-06
-7.44214e-06
-1.509269e-06
4.049024e-07
3.42331e-05
3.511484e-05
2.177526e-05
-5.272253e-06
3.428964e-05
3.146167e-05
2.3672e-05
1.901549e-05
2.938069e-05
3.005026e-05
9.502021e-09
-8.027249e-06
-8.856253e-06
-1.072302e-05
-5.289841e-06
3.799374e-05
-3.27225e-06
-1.003259e-05
-1.360129e-05
5.0224e-05
-8.262681e-06
-1.018892e-05
5.465978e-06
2.876633e-05
2.442434e-05
-4.336096e-06
-1.207791e-05
-5.399844e-06
1.771514e-07
3.148458e-05
3.204546e-05
2.566899e-05
3.338746e-05
6.452827e-06
4.980224e-06
1.099978e-05
2.836258e-05
4.932561e-05
2.61827e-05
2.77295e-05
3.080884e-05
4.92876e-05
4.455527e-05
4.12869e-05
3.629575e-06
3.969204e-05
4.650463e-05
3.602262e-05
6.434557e-06
2.35829e-05
4.009407e-05
2.377348e-05
3.316162e-05
1.80699e-06
3.623449e-08
2.432846e-05
2.561087e-05
3.961249e-05
2.331706e-05
1.976865e-05
1.747926e-05
2.310227e-05
2.622713e-06
3.585101e-05
2.626009e-05
4.218325e-05
2.804962e-05
4.045283e-05
3.610191e-06
3.220804e-05
1.388528e-05
4.23778e-05
4.540538e-05
5.090353e-05
4.882426e-05
4.786047e-05
3.161702e-05
3.024123e-05
6.867346e-06
2.753702e-05
-7.666584e-06
1.933001e-05
2.045039e-05
3.099e-05
2.702134e-05
1.570019e-05
3.45554e-05
-5.923716e-06
-8.971032e-06
2.784164e-05
2.768831e-05
3.846271e-05
1.977915e-05
4.016648e-06
-1.858451e-05
4.144794e-05
3.960559e-05
3.993902e-05
5.311618e-06
5.09933e-05
-3.755257e-07
3.914023e-06
1.363337e-05
1.145675e-05
1.25132e-05
3.513203e-05
-7.574417e-07
-4.074263e-06
-2.398231e-06
1.603175e-05
-8.727214e-06
4.068724e-05
-8.725997e-07
-1.055019e-05
7.468749e-06
4.491769e-05
3.786208e-05
3.175067e-05
1.875303e-05
3.19159e-05
3.260009e-05
1.581205e-05
3.829744e-05
1.940879e-05
4.939896e-05
2.279349e-05
2.496882e-05
2.399787e-05
4.014827e-06
3.787056e-05
3.742442e-05
3.731936e-05
2.148906e-06
1.491096e-06
-1.421117e-05
4.130446e-05
3.194024e-05
4.164242e-05
4.19604e-05
2.560295e-05
2.341911e-05
1.409481e-05
4.972416e-05
4.049994e-05
2.769807e-05
2.018822e-05
-1.760678e-05
2.601359e-05
4.271305e-05
-2.568165e-05
3.179934e-05
3.677485e-06
5.807829e-06
3.106328e-05
4.363217e-06
2.882302e-05
2.467708e-05
2.945467e-05
1.703267e-05
3.683392e-05
1.229349e-05
5.51701e-05
6.005282e-05
3.089685e-05
3.213833e-05
4.218712e-05
3.299317e-05
4.308926e-05
2.779202e-05
2.627978e-05
3.763987e-05
5.107988e-05
5.124104e-05
5.691445e-06
-2.05946e-06
-1.301932e-05
-1.391062e-05
3.06524e-05
3.862644e-05
3.974032e-05
2.847584e-05
3.810257e-05
5.936637e-05
2.324151e-05
-1.793991e-06
5.157397e-06
-2.256411e-05
2.052179e-05
2.125583e-05
3.021734e-05
9.521029e-06
2.954401e-05
6.020468e-05
4.170071e-05
2.374825e-05
8.693458e-06
2.658193e-06
-7.479616e-06
3.73712e-05
-2.206735e-05
8.620455e-06
2.981645e-05
3.043981e-05
-1.575679e-05
-7.683674e-06
1.529401e-05
-1.738155e-05
3.881135e-05
-1.127021e-05
3.14045e-05
2.529357e-05
2.330687e-05
3.485169e-05
3.628233e-05
2.805935e-05
2.842612e-05
2.068806e-05
1.730567e-05
7.191164e-05
9.399785e-05
1.804887e-05
1.880149e-05
1.397345e-05
2.430691e-05
1.991041e-05
-1.12884e-06
3.590028e-05
-6.63413e-07
7.679835e-06
9.093694e-06
3.728995e-05
2.679285e-05
-1.086095e-05
4.290683e-05
3.274496e-05
6.973907e-06
8.706231e-06
1.221038e-05
-1.223272e-05
3.61855e-05
1.120491e-05
8.597258e-06
-6.48674e-06
-7.570216e-06
3.704654e-05
3.365352e-05
-5.539154e-06
-7.827311e-06
1.040687e-05
1.08371e-05
3.767101e-05
2.711058e-05
2.634244e-05
2.812433e-05
2.683194e-05
5.244946e-06
-2.972128e-06
4.361592e-05
4.287971e-05
4.476316e-05
3.500013e-05
2.872866e-05
2.790125e-05
3.221657e-06
-5.16929e-06
6.06455e-06
5.060688e-06
2.446895e-06
1.282988e-06
4.730602e-05
5.325093e-05
3.29206e-05
3.237842e-05
5.305747e-06
5.431504e-06
6.348527e-06
1.593317e-05
7.34828e-06
3.898585e-05
-3.056322e-06
1.681849e-05
1.773706e-05
-1.561824e-06
1.394129e-06
3.52226e-05
-9.030333e-06
2.568508e-05
1.702716e-05
2.513736e-05
-9.672966e-06
1.569644e-05
1.988728e-05
2.179993e-05
-8.370067e-06
-1.273844e-05
-8.636772e-06
1.733341e-05
-6.194359e-06
1.820387e-05
2.201825e-05
-1.452747e-05
2.838426e-05
-3.965393e-06
-5.01314e-06
4.36701e-05
-1.346675e-05
2.390101e-05
2.533379e-05
2.511238e-05
3.889063e-05
4.014303e-05
4.407601e-05
4.542856e-05
3.104105e-05
-4.062887e-06
3.065553e-05
1.682638e-06
2.356253e-06
3.773009e-07
6.83089e-05
-1.488874e-05
3.814904e-05
3.405538e-05
-2.770499e-06
4.713239e-05
6.103122e-05
1.751304e-05
2.192636e-05
1.495345e-05
6.340273e-05
2.595269e-05
2.731537e-05
2.480589e-05
3.356902e-05
3.397694e-05
-2.284658e-06
3.9931e-05
4.969985e-06
8.393205e-06
4.061108e-05
1.066455e-05
6.609909e-06
6.030572e-06
3.737852e-05
2.321922e-05
-1.468555e-05
4.87926e-06
1.853206e-05
9.385591e-06
-1.403739e-05
2.561046e-05
3.539349e-05
-9.21858e-06
2.657956e-05
3.620727e-05
4.027057e-05
3.818607e-05
3.291284e-05
4.484035e-05
4.003208e-05
4.068394e-05
5.368267e-05
2.120622e-05
1.474862e-05
3.035606e-05
2.519829e-05
2.825177e-05
3.990844e-05
5.224585e-05
5.482169e-05
-5.24653e-06
3.530737e-05
3.627638e-06
2.579594e-05
4.481682e-05
2.02079e-05
2.666495e-05
2.982239e-05
3.404547e-05
3.517124e-05
2.299246e-05
-9.118115e-06
4.075112e-05
2.79668e-05
3.280962e-05
2.224831e-06
-1.854743e-06
1.169668e-06
4.201922e-06
3.059046e-05
8.509041e-07
-1.221493e-05
2.408448e-05
2.436761e-05
2.126582e-05
2.256039e-05
2.601187e-05
-6.732696e-06
2.793441e-05
2.873199e-05
7.417525e-06
4.885753e-07
4.173776e-05
4.42179e-05
4.092507e-05
4.107613e-05
4.092609e-05
1.812153e-05
3.867008e-06
2.590726e-05
2.227892e-05
-1.148988e-05
6.808402e-06
7.008162e-06
1.401925e-05
2.503178e-05
1.35608e-05
1.419808e-05
4.117868e-05
3.424264e-05
3.423704e-05
4.030729e-05
3.892232e-05
3.455628e-05
4.016362e-05
3.18776e-05
3.902634e-05
4.082486e-05
2.07743e-05
4.010138e-05
2.975787e-05
3.433653e-05
3.822921e-05
3.502634e-05
-7.956485e-06
1.076273e-05
1.585388e-05
1.595975e-07
7.276815e-05
6.761176e-05
1.983881e-05
-1.827948e-05
2.942256e-05
5.22393e-05
4.892772e-06
3.129129e-05
3.116643e-05
8.582879e-06
1.051306e-05
2.74126e-05
1.878439e-05
3.093468e-05
2.996141e-05
2.38184e-05
6.594731e-06
1.025879e-05
2.579002e-05
2.813058e-05
3.811808e-06
2.986116e-05
1.169133e-05
3.468025e-05
4.779798e-05
1.026493e-05
2.389401e-05
4.214928e-05
4.158182e-06
2.148372e-05
3.293492e-06
1.341265e-05
2.65361e-05
2.986136e-05
3.735593e-05
1.60857e-05
-1.592256e-05
4.570372e-06
-1.235904e-05
2.499612e-05
1.800251e-05
1.457019e-05
1.547527e-05
4.374689e-05
2.053967e-05
4.062632e-05
2.181157e-05
1.341713e-05
-1.718012e-06
1.414873e-06
4.486276e-05
6.114992e-05
7.033034e-05
2.35778e-05
-6.470193e-06
2.742396e-05
2.835626e-05
2.111002e-05
3.07714e-05
3.046247e-05
-2.644621e-05
3.17619e-05
-9.949797e-06
2.711212e-05
-7.504219e-06
2.501745e-05
3.372173e-06
-6.673605e-06
3.977544e-05
4.58477e-06
8.493716e-06
3.752197e-05
2.383747e-05
5.204468e-06
2.859751e-05
2.764091e-05
3.888136e-05
1.321842e-05
1.194995e-05
1.143227e-05
1.255891e-05
4.628653e-05
4.452276e-05
3.65087e-05
3.840435e-05
3.62744e-05
3.700024e-05
3.589062e-05
2.861736e-05
7.698587e-05
2.999553e-05
1.202258e-05
2.907857e-05
2.89205e-05
-4.067889e-06
-1.970286e-05
5.597561e-06
2.806409e-06
2.407655e-05
5.412047e-05
1.439212e-05
2.636671e-05
4.505967e-05
8.942531e-06
6.913626e-06
-9.383596e-06
2.853816e-05
2.633472e-05
2.522823e-05
2.910222e-05
3.709787e-05
3.827542e-05
6.367554e-05
3.997169e-05
2.296182e-05
4.395144e-05
4.305321e-05
3.386608e-05
3.715311e-05
2.158108e-05
-3.526567e-06
-8.526177e-06
7.031784e-06
6.974859e-05
1.776049e-05
-2.597853e-06
-1.141239e-05
-2.119496e-07
1.988141e-05
1.441548e-05
2.580415e-05
2.882628e-05
-1.026035e-05
6.277528e-05
5.961291e-05
2.79444e-05
6.921684e-06
6.525714e-05
3.801314e-05
3.83784e-05
1.080842e-05
3.233177e-06
3.001676e-05
3.065322e-05
3.281099e-05
-1.604329e-05
-1.086119e-05
3.895439e-05
3.921742e-05
1.551372e-06
3.805869e-05
2.206239e-05
-1.817386e-05
-2.313562e-05
-1.374103e-05
3.344663e-05
4.914357e-08
-1.317984e-05
-1.424227e-05
3.220346e-05
2.694324e-05
6.157681e-05
1.313072e-05
4.467497e-05
2.652088e-05
1.865571e-05
-4.945206e-06
8.546363e-07
1.356022e-05
2.905981e-06
3.11795e-05
3.053329e-05
8.784767e-06
1.238439e-05
2.333908e-05
9.370396e-06
4.751144e-05
4.488394e-06
2.996608e-05
3.331108e-05
2.906614e-05
1.630394e-05
-9.845195e-06
-5.155976e-06
3.333051e-05
2.483712e-05
2.431561e-05
2.797195e-05
5.925996e-06
3.52383e-05
-9.164832e-06
1.405436e-05
6.282551e-05
1.800648e-05
5.50418e-05
-4.656709e-06
1.352402e-06
3.438607e-05
-1.638296e-05
-3.653224e-06
6.355325e-06
1.983084e-05
2.087203e-05
4.421406e-05
4.682153e-05
4.496398e-05
4.349868e-05
4.541761e-05
4.377016e-05
4.601965e-05
4.165014e-05
4.459965e-05
-1.207586e-05
-1.28534e-05
-4.874917e-06
-2.981752e-06
4.209932e-05
4.194622e-05
4.141359e-05
4.290739e-05
4.328938e-05
4.24836e-05
-2.257276e-06
-2.533113e-06
-1.445046e-06
-9.548584e-06
-1.141969e-05
2.779282e-05
7.735589e-06
3.614964e-05
-4.590712e-07
-2.529605e-05
5.267444e-05
-6.237513e-06
-5.948565e-06
-1.784116e-05
3.284325e-05
8.327549e-06
9.185361e-06
-3.042412e-06
-1.560842e-06
2.414489e-05
2.10695e-05
1.182752e-05
5.744319e-05
4.782416e-05
2.477401e-05
2.221612e-05
-1.173321e-06
1.555364e-05
2.355854e-05
2.423773e-05
-2.994375e-06
2.368415e-06
3.811861e-05
6.39911e-06
7.754154e-06
-1.978021e-05
1.032894e-06
-7.85287e-06
1.050847e-05
1.067718e-05
3.304242e-05
3.155524e-05
2.383387e-05
2.387605e-05
1.981067e-05
-4.302702e-06
-6.187024e-06
-2.887106e-06
2.981315e-05
3.02377e-05
3.004314e-05
-1.468348e-05
-4.736465e-07
4.336526e-08
1.807818e-05
1.271567e-05
5.226996e-05
1.676104e-05
1.594768e-05
1.856924e-05
3.493126e-05
4.244219e-05
4.708792e-05
3.700685e-06
4.802245e-05
2.630751e-05
3.882099e-05
2.598045e-05
1.687215e-05
6.483006e-06
2.693278e-05
4.272402e-05
9.21957e-06
6.709341e-05
6.678974e-05
2.876024e-05
2.921681e-05
3.481928e-05
3.906949e-05
2.685433e-06
3.725992e-06
4.974691e-06
2.510706e-05
4.085853e-05
3.776799e-05
3.63774e-05
-7.17409e-06
2.125909e-06
2.391476e-06
7.613577e-06
1.623264e-06
3.332342e-05
3.423574e-05
2.765876e-05
2.784823e-05
5.060203e-06
5.660078e-06
-1.139702e-06
1.372096e-05
1.443596e-05
7.372591e-06
3.663535e-05
-1.907756e-07
-1.470869e-07
2.400464e-05
2.365825e-05
2.895587e-05
2.31516e-05
2.347225e-05
2.696478e-05
2.734071e-05
2.968506e-05
2.370285e-05
2.104682e-05
3.071165e-05
4.131399e-05
3.599466e-05
2.732764e-05
5.559222e-06
2.993972e-05
3.984354e-06
5.434353e-06
1.395537e-05
2.695559e-05
2.495422e-05
2.607806e-05
2.644239e-05
2.446395e-05
3.565309e-05
1.021559e-05
3.276304e-05
4.109317e-05
-1.905028e-05
2.496308e-05
2.428292e-05
2.380016e-05
1.783528e-05
1.774715e-05
-1.502307e-05
2.345775e-05
-7.279414e-06
2.568748e-05
5.017059e-07
2.890071e-05
2.027568e-05
4.09125e-05
4.065814e-05
3.118909e-05
8.723686e-07
-1.406101e-07
1.535997e-05
8.324957e-06
1.969714e-05
2.646461e-05
3.467895e-05
3.472109e-05
3.401958e-05
5.635004e-06
1.187139e-05
-8.449235e-06
4.008243e-05
4.025144e-05
2.877328e-05
2.7047e-05
9.330193e-06
2.77381e-07
1.130389e-05
1.307606e-05
3.087611e-05
-3.477457e-05
3.177848e-05
3.177914e-05
4.949651e-05
4.944616e-05
3.443375e-05
-5.273012e-07
1.566323e-06
-9.377103e-06
2.020176e-05
2.009612e-05
3.314489e-05
5.583413e-05
-3.245035e-06
2.462165e-05
5.524974e-06
3.384977e-05
1.19665e-06
1.204905e-06
1.733431e-05
2.185708e-05
4.431141e-05
2.851665e-05
-2.092522e-05
-2.011679e-05
4.174704e-05
6.379108e-05
2.829405e-05
-2.022467e-05
-1.56333e-05
3.388261e-05
3.771876e-05
3.532782e-05
3.374747e-05
3.858382e-05
3.789684e-05
3.9158e-05
3.8866e-05
3.591821e-05
3.572068e-05
2.340016e-05
2.671064e-05
2.56191e-05
2.428278e-05
3.815224e-05
3.516303e-05
3.626671e-05
1.061162e-06
3.737063e-05
2.808641e-05
2.238601e-05
2.247325e-05
2.57526e-05
2.417617e-05
1.8621e-06
-7.573618e-06
1.670438e-05
4.224238e-05
3.929667e-05
-1.255289e-05
3.862819e-05
3.83469e-05
4.077371e-05
3.796609e-05
-1.410421e-06
4.4033e-05
4.010705e-07
2.848784e-06
3.537877e-05
4.164626e-05
3.958592e-05
3.989578e-05
3.856547e-05
2.310548e-05
5.136685e-05
6.423486e-05
1.08021e-05
1.162453e-05
7.042073e-06
1.800052e-05
2.032825e-05
2.080798e-05
5.095167e-05
2.300892e-05
1.7793e-06
2.749411e-05
2.996625e-05
1.2582e-05
3.442598e-05
3.50745e-05
3.825813e-05
4.686338e-06
2.944135e-05
2.857922e-05
-2.957208e-06
6.724072e-06
2.437716e-05
2.515439e-05
1.230515e-06
6.670457e-05
1.209345e-05
1.194991e-05
1.114648e-05
1.200872e-05
5.083964e-05
5.60222e-05
4.673381e-05
2.492112e-05
-2.709386e-06
2.642875e-05
-1.112859e-05
-1.232759e-05
1.323746e-06
4.05081e-05
2.653221e-05
-3.935857e-06
2.503434e-05
2.685198e-05
9.222519e-07
1.007604e-05
-1.007397e-05
-8.49558e-06
3.347494e-05
4.095944e-06
4.692806e-06
2.415325e-05
2.708574e-05
1.116035e-05
4.872312e-05
3.371306e-05
3.428715e-05
6.64728e-05
5.606671e-05
2.302946e-05
1.757503e-05
-1.192303e-05
2.91264e-05
3.731686e-05
3.727931e-05
-2.223323e-05
3.42637e-06
3.292658e-05
3.26432e-05
-3.000127e-06
-1.534942e-06
7.007856e-05
2.15829e-05
2.075839e-05
1.411213e-05
2.742571e-07
1.542755e-05
-1.383306e-05
2.14999e-06
2.79923e-05
2.49113e-05
6.637482e-06
2.194784e-05
3.936226e-06
3.998512e-06
4.545397e-05
4.497725e-05
2.484482e-05
3.721093e-05
3.741934e-05
2.546887e-05
2.03132e-05
2.61482e-05
2.568344e-05
5.880791e-07
2.886425e-05
3.242388e-05
4.511016e-05
3.409416e-05
1.263753e-05
1.244419e-05
3.918908e-05
3.724836e-05
-2.111595e-06
-2.577592e-06
3.561473e-06
1.422542e-05
1.164347e-05
1.630222e-05
1.753541e-05
5.831236e-05
2.928096e-05
-2.001005e-05
1.94947e-05
1.762635e-05
1.797308e-05
5.594543e-07
2.356813e-05
1.753016e-05
4.572654e-05
4.408789e-05
7.251026e-06
1.422295e-05
1.526915e-05
4.524529e-05
3.7435e-05
3.535525e-05
3.508806e-05
-1.289549e-05
3.979452e-05
4.190899e-05
1.940721e-05
3.034357e-05
2.952623e-05
3.816788e-05
3.746728e-05
2.311358e-05
4.380645e-05
4.388768e-05
4.768287e-05
4.390612e-05
4.548768e-05
4.514856e-05
3.897913e-05
4.979373e-05
2.924677e-05
-3.239327e-06
4.015759e-05
-2.401343e-06
-4.010688e-06
2.77883e-05
2.474048e-05
1.122548e-05
1.100324e-05
2.417126e-06
4.754118e-06
4.202913e-05
-5.293203e-06
2.271356e-05
-7.735517e-06
1.459707e-06
3.856689e-05
-4.322796e-06
2.727736e-05
2.768108e-05
3.602128e-05
9.576347e-06
3.015725e-05
3.716942e-05
9.12341e-06
3.388644e-05
2.575811e-05
1.48321e-05
-1.560402e-05
-1.459931e-05
2.679346e-05
2.683381e-05
4.68893e-05
4.072516e-06
4.988109e-05
6.414917e-05
1.384888e-05
3.486346e-05
3.513752e-05
4.889599e-05
1.756981e-05
2.084757e-05
4.833545e-05
4.771227e-05
2.989494e-05
8.543066e-06
6.991583e-06
1.953775e-06
1.808642e-06
8.14167e-06
4.172179e-06
1.057718e-05
-1.391871e-05
3.263937e-06
2.839281e-06
4.06996e-05
7.874664e-06
5.534474e-06
-2.616405e-06
-2.270072e-05
1.821792e-05
6.980572e-06
4.026865e-05
2.644052e-05
2.49782e-05
2.440089e-05
4.811686e-05
7.678588e-06
6.445035e-05
1.663815e-05
2.663957e-05
3.97381e-05
3.347161e-05
-5.794307e-07
2.23784e-05
-5.663554e-06
2.677419e-05
4.144098e-05
1.284525e-05
1.314068e-05
-3.72941e-06
2.693871e-05
3.253853e-05
-6.267979e-06
2.502457e-05
2.424091e-05
6.926087e-06
7.20323e-06
8.296525e-06
2.51255e-05
2.509089e-05
3.184091e-05
4.865242e-05
4.91428e-05
3.044297e-05
-6.154923e-06
3.83625e-05
2.218291e-05
2.149226e-05
3.487453e-05
3.473605e-05
1.141542e-05
5.284407e-06
-5.337984e-06
-4.786373e-06
-2.791345e-06
2.539998e-05
2.650867e-05
4.458645e-06
3.639601e-05
3.683804e-05
3.193886e-05
3.721195e-05
3.603715e-05
3.904934e-05
3.725414e-05
2.404221e-05
3.317782e-05
3.258895e-05
4.567301e-05
5.359625e-05
5.829151e-05
2.962821e-05
3.941194e-07
1.883614e-07
5.925709e-05
8.706382e-06
8.357673e-06
-7.164954e-06
3.170223e-05
6.610877e-05
3.86393e-05
3.858436e-05
1.620149e-06
3.484862e-05
3.604692e-05
-4.844747e-07
-6.00188e-06
3.291124e-05
2.030088e-05
3.742904e-05
2.538028e-05
2.504418e-05
5.443598e-06
3.01393e-05
3.737009e-05
3.637528e-05
-1.495979e-05
-1.112895e-05
1.005997e-05
1.002632e-05
4.025155e-05
4.01986e-05
1.046358e-05
4.422356e-05
1.191489e-05
1.112391e-05
1.246977e-05
1.195203e-05
-1.298149e-05
1.809786e-05
2.687099e-05
5.759289e-05
5.545922e-05
2.884391e-05
2.84633e-05
4.933954e-06
6.372824e-06
5.138586e-05
5.13395e-05
-8.234548e-06
3.712264e-05
2.794575e-05
2.731822e-05
2.80595e-05
2.831901e-05
-4.942612e-06
-6.590573e-07
5.775029e-06
8.395987e-06
-9.280134e-06
-6.605606e-06
-1.260007e-05
1.807021e-05
1.573795e-05
1.135898e-05
1.93627e-05
3.874163e-05
3.931512e-05
2.435899e-05
9.966187e-06
4.708172e-05
4.027368e-05
4.915768e-05
2.024911e-05
4.879944e-06
4.660812e-06
5.179153e-05
5.054693e-05
2.543088e-05
2.572356e-05
3.40121e-05
-1.859297e-05
-1.754997e-05
3.694783e-05
3.800663e-05
5.327863e-05
3.172584e-05
3.201019e-05
6.155581e-05
6.135326e-05
5.90948e-05
6.007697e-05
7.489429e-05
-2.088528e-05
2.168619e-05
1.950141e-05
4.431753e-06
-4.064362e-06
1.325125e-07
3.19296e-06
-6.419632e-06
3.077797e-05
2.885786e-05
-1.407119e-05
6.554143e-06
3.643884e-05
3.20312e-05
1.478266e-05
1.01161e-05
3.411201e-05
-1.383115e-06
3.169102e-05
-1.22552e-05
-1.108144e-05
9.756073e-06
-2.488251e-06
2.662726e-05
-8.355139e-06
-1.255359e-05
9.57632e-06
-4.809082e-06
-4.333411e-06
2.957867e-06
1.902498e-06
1.254716e-06
-1.639271e-06
1.304063e-05
1.393749e-05
2.392669e-05
1.765565e-06
1.486438e-06
7.333059e-06
3.927227e-05
4.126353e-05
4.156604e-05
4.089926e-05
1.457984e-05
1.481147e-05
9.096362e-06
7.458421e-06
-2.603255e-06
-3.951917e-06
-6.747152e-06
-5.041963e-06
-5.089179e-06
-6.082463e-06
2.176271e-05
2.507789e-05
2.563658e-05
2.416568e-05
2.391894e-05
2.65083e-05
2.455494e-05