/*--------------------------------*- C++ -*----------------------------------*\
| =========                 |                                                 |
| \\      /  F ield         | OpenFOAM: The Open Source CFD Toolbox           |
|  \\    /   O peration     | Version:  2406                                  |
|   \\  /    A nd           | Website:  www.openfoam.com                      |
|    \\/     M anipulation  |                                                 |
\*---------------------------------------------------------------------------*/
FoamFile
{
    version     2.0;
    format      ascii;
    arch        "LSB;label=32;scalar=64";
    class       surfaceScalarField;
    location    "0.3";
    object      phi;
}
// * * * * * * * * * * * * * * * * * * * * * * * * * * * * * * * * * * * * * //

dimensions      [0 3 -1 0 0 0 0];

oriented        oriented;

internalField   nonuniform List<scalar> 
6741
(
4.91792e-10
9.459186e-10
-1.437711e-09
-1.234159e-09
-5.564006e-11
1.289799e-09
1.703886e-09
-1.753136e-09
4.925015e-11
6.12389e-10
7.20258e-10
-1.332647e-09
1.544994e-09
-8.286251e-10
-7.163691e-10
2.006248e-09
-8.434404e-10
-1.162808e-09
-1.217559e-09
-2.075346e-10
1.425094e-09
-9.239592e-10
1.834861e-09
-9.109016e-10
9.369857e-11
2.110727e-09
-2.204425e-09
-1.531642e-09
3.496868e-10
1.181955e-09
-1.74121e-10
1.960519e-09
-1.786398e-09
1.331017e-09
-1.999463e-09
6.684453e-10
1.350324e-09
-1.959113e-09
6.087893e-10
1.862155e-09
-1.630847e-09
-2.313073e-10
-1.80499e-10
1.467804e-09
-1.287305e-09
3.464522e-09
-2.070016e-09
-1.394506e-09
-8.519111e-10
-6.110181e-10
1.462929e-09
1.302914e-09
-1.512229e-09
2.093157e-10
1.885509e-09
-1.752762e-09
7.172284e-10
-1.600841e-09
8.836127e-10
-2.359677e-09
1.251691e-09
1.107985e-09
4.089737e-10
-1.346349e-09
9.373753e-10
-1.725004e-09
1.429545e-09
2.954589e-10
4.045178e-10
1.52418e-09
-1.928698e-09
3.766962e-10
1.416468e-09
-1.793164e-09
1.682741e-09
-1.480172e-09
-2.025687e-10
1.802261e-09
-1.093915e-09
-7.083461e-10
-2.066452e-09
1.171427e-09
8.950248e-10
-1.296601e-09
1.431836e-09
-1.352352e-10
-4.824904e-09
7.134645e-10
4.11144e-09
-2.143322e-09
8.736468e-10
1.269675e-09
-1.531938e-09
1.168072e-09
3.638657e-10
1.719835e-09
-9.405946e-10
-7.792401e-10
2.789097e-09
-2.368675e-10
-2.55223e-09
4.163093e-09
2.041824e-09
-6.204917e-09
-1.318288e-09
1.598291e-09
-2.80003e-10
-1.508203e-09
-2.415111e-10
1.749714e-09
4.811804e-09
2.339399e-09
-7.151203e-09
1.767576e-09
-6.289168e-10
-1.138659e-09
-1.61658e-09
2.002951e-09
-3.863712e-10
1.460614e-09
7.236078e-10
-2.184222e-09
-8.143634e-10
-1.274166e-09
2.08853e-09
1.46507e-09
-2.312623e-10
-1.233808e-09
9.918422e-10
-1.520995e-09
5.291532e-10
-1.881291e-09
1.151657e-09
7.296332e-10
-1.324719e-09
5.144897e-10
8.102288e-10
-7.170023e-10
-1.086177e-09
1.80318e-09
-2.185026e-10
-1.556627e-09
1.77513e-09
-5.606792e-10
-1.420974e-09
1.981653e-09
6.217493e-10
1.216919e-09
-1.838669e-09
-1.55866e-09
1.639033e-09
-8.037224e-11
-1.286203e-09
4.251414e-10
8.610614e-10
1.399935e-09
-2.213996e-10
-1.178536e-09
1.952311e-09
-4.746105e-10
-1.4777e-09
-1.347255e-10
1.249966e-09
-1.115241e-09
4.445922e-10
1.341797e-09
-1.78639e-09
-1.629534e-09
1.432129e-09
1.974049e-10
-2.632788e-10
-1.610716e-09
1.873995e-09
-1.185264e-09
1.868668e-09
-6.834046e-10
5.507472e-10
-1.73922e-09
1.188473e-09
-8.02261e-10
-4.725103e-10
1.274771e-09
-1.508852e-09
1.121361e-09
3.874913e-10
-1.483564e-09
1.558557e-09
-7.499338e-11
3.854398e-10
1.456069e-09
-1.841509e-09
-2.368858e-09
1.172729e-09
1.196129e-09
1.528307e-09
-1.209803e-09
-3.185043e-10
-1.75768e-09
1.424098e-09
3.335813e-10
5.332057e-10
1.004811e-09
-1.538016e-09
6.794214e-09
-7.270622e-09
4.764086e-10
-1.960024e-09
3.824175e-10
1.577607e-09
5.039515e-10
-2.074152e-09
1.570201e-09
1.340095e-09
-1.59029e-09
2.501945e-10
1.503834e-09
-2.9522e-10
-1.208614e-09
1.431495e-09
-1.934271e-09
5.027769e-10
5.129327e-09
1.067542e-09
-6.196869e-09
-1.300879e-09
-2.009077e-12
1.302888e-09
2.222863e-09
-7.959033e-10
-1.42696e-09
1.615022e-09
-1.626253e-10
-1.452396e-09
-1.519365e-09
-3.969168e-10
1.916282e-09
1.957518e-09
-2.285915e-09
3.283964e-10
4.463897e-10
1.261189e-09
-1.707578e-09
1.049978e-09
-1.157653e-09
1.076746e-10
-8.06441e-10
-1.411927e-10
-1.597378e-09
-4.084832e-10
2.005861e-09
-1.612066e-09
1.189926e-09
4.221402e-10
-5.930475e-10
2.239047e-09
-1.646e-09
9.482661e-10
-1.686636e-09
7.383702e-10
5.419028e-10
2.519099e-09
-3.061002e-09
-6.207591e-10
-1.129629e-09
1.750388e-09
8.051638e-10
-1.552433e-09
7.472691e-10
1.975516e-10
-1.45256e-09
1.255008e-09
1.268865e-09
3.278338e-10
-1.596699e-09
-2.966374e-10
2.00973e-09
-1.713093e-09
-1.670617e-11
-1.7702e-09
1.786906e-09
-9.43553e-10
1.585896e-09
-6.423434e-10
-2.700823e-11
-2.929179e-09
2.956187e-09
8.797209e-10
-1.94259e-09
1.062869e-09
-1.231033e-10
1.230931e-09
-1.107828e-09
-1.267532e-09
-5.718612e-11
-6.228194e-09
4.037638e-09
2.190556e-09
1.262998e-09
-6.506087e-10
1.441634e-09
-1.809922e-09
3.682876e-10
-3.119662e-09
-4.16486e-12
3.123827e-09
-2.360821e-09
-3.081089e-09
5.441909e-09
4.553469e-10
-2.052725e-09
1.694571e-10
1.44939e-09
-1.618847e-09
-1.963044e-09
1.409614e-09
5.534299e-10
-2.241214e-09
6.864659e-10
-3.808514e-10
2.050877e-09
-1.670025e-09
1.173347e-09
-1.666586e-09
4.932389e-10
1.024218e-09
-7.752914e-10
-2.489271e-10
-1.95857e-09
1.106659e-09
-7.546118e-10
-7.313831e-10
1.485995e-09
-1.094963e-09
1.630449e-09
-5.35486e-10
1.11232e-09
-3.971773e-12
-1.108348e-09
1.790141e-09
-2.863068e-10
-1.506853e-09
1.28384e-10
1.378469e-09
-1.94681e-09
9.751569e-10
9.716533e-10
-1.600069e-09
-7.118467e-11
1.671254e-09
-2.492456e-09
2.551191e-09
-5.873542e-11
-1.029583e-09
-1.675434e-10
1.197126e-09
3.392872e-09
9.203771e-10
-4.313249e-09
1.743623e-09
-1.416267e-09
-3.273556e-10
-1.141757e-09
-7.395337e-10
1.116561e-09
-1.486663e-09
3.701021e-10
-1.018577e-09
-7.078689e-10
1.726446e-09
3.028392e-09
-3.188256e-09
1.598635e-10
-3.08731e-09
4.58798e-10
2.628512e-09
-1.812884e-09
1.658959e-09
1.539254e-10
2.137315e-09
-3.669389e-10
-1.770376e-09
-8.198665e-11
-1.21039e-09
1.292376e-09
-1.433177e-09
-6.233296e-10
2.056507e-09
4.591619e-10
1.07997e-09
-1.539132e-09
2.452137e-09
-2.209664e-09
-2.424726e-10
-1.572004e-09
8.763116e-10
6.95692e-10
1.557848e-09
-2.392332e-09
8.344844e-10
-1.891882e-09
1.423434e-09
4.684484e-10
-1.576641e-09
1.296662e-09
2.799796e-10
-8.64686e-10
-1.201766e-09
1.153381e-10
-2.753058e-09
2.63772e-09
3.507725e-09
-5.868545e-09
-5.816184e-12
-1.826311e-09
1.832127e-09
1.008058e-09
-1.645485e-09
6.374268e-10
-1.138526e-09
-3.931158e-10
-1.231593e-09
2.334702e-09
-1.103108e-09
-1.774646e-09
2.325394e-09
-6.191718e-10
-1.118517e-09
1.737689e-09
1.178098e-09
-1.169425e-09
-8.673752e-12
-1.384098e-09
1.260994e-09
-7.544647e-10
-4.855578e-10
1.240022e-09
1.216164e-09
-1.052435e-09
-1.63729e-10
-2.684366e-09
1.176163e-09
-2.021627e-09
-1.862704e-10
2.207898e-09
4.224151e-09
-1.278655e-09
-2.945496e-09
1.041689e-09
8.111299e-10
-1.852819e-09
-1.889804e-11
-1.018053e-09
1.036951e-09
1.959315e-09
-1.213957e-09
-7.453579e-10
1.483058e-09
-5.263009e-11
-1.430428e-09
5.503349e-10
-1.968137e-09
1.417802e-09
1.72228e-09
-2.491498e-09
7.692184e-10
2.167432e-09
-1.87588e-09
-2.91552e-10
-1.931391e-09
6.743195e-09
1.981587e-09
-1.914462e-10
-7.709265e-10
1.546123e-09
-7.751961e-10
9.971041e-10
-1.183991e-09
-3.221009e-09
2.404522e-10
2.980557e-09
2.650791e-10
1.345278e-09
-1.610357e-09
1.540643e-09
5.897688e-10
-2.130412e-09
1.17102e-09
3.606475e-10
-1.531668e-09
8.657645e-10
6.399633e-10
-1.505728e-09
-1.946028e-09
5.827122e-10
1.363316e-09
3.02657e-09
-2.055089e-09
-9.714808e-10
7.662335e-09
-3.499242e-09
-8.957936e-10
6.104841e-10
1.546191e-09
-2.156675e-09
-4.254933e-10
-8.809935e-10
1.306487e-09
-1.879837e-09
1.710377e-09
1.694603e-10
-8.32631e-10
1.865623e-09
-1.032992e-09
-1.11961e-09
1.377235e-09
-2.576247e-10
-7.412959e-10
-1.226179e-09
1.967475e-09
-2.905703e-10
-1.350122e-09
1.640692e-09
2.058967e-09
-5.695984e-10
-1.489368e-09
-5.275985e-10
-8.273487e-10
1.354947e-09
-3.449553e-09
3.256988e-09
1.925643e-10
-1.009713e-09
1.888293e-09
-8.785798e-10
-2.614177e-10
-7.140134e-10
9.754311e-10
1.180832e-09
5.627905e-10
1.764383e-09
-1.153899e-09
-2.770183e-10
-1.095271e-09
1.37229e-09
1.659002e-09
-7.10736e-10
3.646281e-10
-1.797805e-09
-1.598564e-11
-1.280616e-09
7.752951e-10
-2.428673e-09
1.653378e-09
-1.51113e-09
-4.530071e-10
-1.236728e-09
-5.664839e-10
1.803212e-09
-1.632489e-09
5.522563e-10
1.080233e-09
-4.96059e-10
1.252577e-09
-7.565179e-10
-1.59262e-09
9.927543e-10
5.99866e-10
-1.11774e-09
-4.659708e-10
1.58371e-09
5.186075e-10
-2.008822e-09
1.490214e-09
8.929251e-10
5.409327e-10
-1.433858e-09
1.605778e-10
-1.66943e-09
1.721398e-09
-5.281788e-10
-1.19322e-09
-9.903577e-10
1.910987e-09
-9.206293e-10
5.127185e-09
-2.187317e-09
-2.939869e-09
-1.89078e-09
1.639294e-09
2.514864e-10
-7.303422e-10
1.562419e-09
-8.320765e-10
1.618361e-09
-2.032001e-09
4.136395e-10
1.684023e-09
-3.240677e-10
-1.359956e-09
-4.145753e-10
1.192614e-09
-7.780383e-10
-1.271947e-09
1.647005e-09
-3.750583e-10
-5.07677e-09
7.710479e-09
-2.633709e-09
6.627411e-11
1.744148e-09
-1.810422e-09
4.977101e-10
-1.495579e-09
9.978686e-10
1.005633e-09
7.839339e-10
-1.789567e-09
-8.643074e-10
-1.350836e-09
2.215143e-09
1.106494e-10
-1.594213e-09
2.322492e-09
-1.223821e-10
-2.20011e-09
-1.335046e-10
-1.466564e-09
1.173872e-09
4.804993e-10
-1.654371e-09
-1.747326e-09
1.671102e-09
7.6224e-11
-1.829771e-09
-4.925211e-10
2.322292e-09
-7.645825e-11
1.951038e-09
-1.87458e-09
2.24458e-09
-5.312024e-10
-1.713377e-09
-1.518981e-09
1.513084e-09
5.897069e-12
-1.678884e-09
6.821434e-10
9.967409e-10
2.129904e-09
-5.412753e-10
-1.588629e-09
-1.123473e-09
-4.352409e-10
1.558714e-09
-1.411669e-09
-2.009736e-10
1.612643e-09
3.967654e-10
-1.449303e-09
1.052538e-09
1.55116e-09
-1.521393e-09
-2.976715e-11
1.042274e-10
1.45433e-09
2.012599e-09
-2.584894e-09
5.72295e-10
1.007359e-09
-1.720231e-09
7.128723e-10
1.78522e-09
-1.983618e-09
1.983985e-10
-7.703357e-10
1.7638e-09
-9.934648e-10
1.43589e-09
-7.072791e-10
-7.286108e-10
-1.303131e-09
1.562763e-09
-2.596327e-10
1.128278e-09
-4.046144e-11
-1.087817e-09
5.628707e-10
1.787939e-09
-2.350809e-09
1.254882e-09
-1.673753e-09
4.188713e-10
5.411022e-11
-1.388817e-09
1.334707e-09
3.311489e-09
-2.739892e-09
-5.715975e-10
1.39745e-09
-1.123118e-11
-1.386219e-09
8.749891e-10
6.700051e-10
1.926552e-09
-9.565576e-09
7.639024e-09
-8.613522e-10
-2.36134e-09
3.222692e-09
3.328887e-10
-8.278386e-09
7.945497e-09
1.764642e-09
-1.729458e-09
-3.518382e-11
4.092635e-10
5.803557e-09
-6.21282e-09
2.113743e-09
-2.195586e-09
8.184272e-11
-1.520571e-09
-7.297381e-11
1.593545e-09
7.750333e-10
-1.265727e-09
4.906941e-10
1.074247e-09
-3.782521e-10
-6.959948e-10
-1.383926e-09
1.438036e-09
1.403411e-09
-5.3617e-10
-8.67241e-10
1.20463e-09
4.990754e-10
-1.703705e-09
-8.903236e-10
1.783249e-09
1.554707e-09
-8.489854e-10
-7.057215e-10
1.596897e-09
-6.645171e-10
-9.323794e-10
1.953955e-09
-1.102643e-09
-8.513121e-10
1.490844e-09
-1.015939e-09
-4.749051e-10
1.443436e-09
-1.416873e-09
-2.65629e-11
2.121393e-10
-1.312445e-09
1.100306e-09
7.829504e-10
2.412681e-10
-1.78785e-10
-1.546219e-09
-4.012936e-10
-7.965779e-09
8.367072e-09
-1.620564e-09
2.254753e-09
-6.341896e-10
1.626583e-09
-1.303645e-09
-3.229383e-10
1.1385e-09
4.812915e-10
-1.619791e-09
1.97596e-09
-2.720739e-10
-3.775738e-10
-1.940044e-09
2.317618e-09
7.458967e-10
6.820735e-10
-1.42797e-09
6.683613e-10
1.212026e-09
-1.880388e-09
-1.508896e-09
-1.086359e-10
1.617532e-09
-9.02135e-10
9.191961e-09
-8.289826e-09
-4.009339e-11
1.708243e-09
-1.668149e-09
-2.871466e-09
2.095701e-09
7.757653e-10
-8.694968e-10
2.014996e-09
-1.145499e-09
1.503149e-09
-9.267221e-10
-5.764272e-10
1.227734e-09
-1.532356e-09
3.046218e-10
1.387882e-09
-1.230723e-09
-1.571591e-10
-1.443867e-09
6.685677e-10
7.752996e-10
-1.92836e-09
-1.442288e-09
3.370649e-09
1.434329e-09
1.091174e-10
-1.543446e-09
-1.549332e-09
-1.979934e-10
6.07226e-10
-1.990567e-09
1.383341e-09
9.046433e-10
6.907753e-11
-9.737209e-10
3.904705e-09
-2.779003e-09
-1.125702e-09
-3.548002e-10
1.625813e-09
-1.271012e-09
-9.529547e-10
2.08099e-09
-1.128036e-09
2.207442e-09
-4.185905e-10
1.642103e-09
-1.223513e-09
1.69075e-10
-1.250237e-09
1.081162e-09
1.860334e-09
-2.859045e-10
-1.574429e-09
1.324561e-09
5.379932e-10
-1.862554e-09
9.89206e-10
5.391012e-10
-8.00285e-10
1.808343e-09
1.137926e-10
1.759352e-09
-1.873144e-09
1.879558e-09
-7.081305e-10
-3.633743e-10
-1.679907e-09
2.043281e-09
4.884064e-10
-1.769347e-09
1.280941e-09
-2.329516e-09
5.364444e-10
1.793072e-09
-4.68441e-10
1.709581e-09
-1.24114e-09
-1.03308e-09
1.222926e-09
-1.89846e-10
1.594311e-10
1.139797e-09
-1.299228e-09
-1.387814e-09
7.307612e-10
6.570523e-10
2.197957e-09
-4.313016e-09
2.115059e-09
-1.609649e-09
1.706557e-09
-9.69088e-11
4.504593e-10
-1.619277e-09
1.168817e-09
-1.031677e-09
1.89101e-09
-8.593324e-10
-4.920634e-10
-1.147346e-09
1.639409e-09
6.03184e-10
-1.719211e-09
1.116027e-09
-1.900968e-09
1.295147e-09
6.058212e-10
2.090613e-09
-1.165795e-09
-9.24818e-10
-4.880044e-10
-8.835676e-10
1.371572e-09
-2.950518e-11
-1.434195e-09
1.4637e-09
-1.683552e-09
-1.282983e-09
2.966535e-09
5.521955e-10
-1.495748e-09
1.167132e-09
7.915346e-10
-1.958667e-09
-2.476379e-09
-6.19364e-10
3.095743e-09
9.335023e-10
5.573413e-10
-6.291605e-10
-7.844591e-10
1.41362e-09
-9.215952e-10
-8.62061e-10
1.783656e-09
1.082134e-09
7.429778e-10
-1.825112e-09
-1.074293e-09
-4.224489e-10
-1.350011e-09
1.77246e-09
-1.162316e-09
1.798119e-09
-6.358021e-10
-1.575891e-09
7.112046e-10
-3.158418e-10
2.296299e-09
-1.980457e-09
1.662557e-09
-9.472733e-10
-7.152832e-10
2.363213e-09
-5.034797e-10
-1.859733e-09
1.290243e-10
-1.538746e-09
1.409722e-09
1.061348e-09
-2.042287e-09
9.80939e-10
9.836125e-10
5.590949e-10
-1.542707e-09
4.648518e-10
-2.069854e-09
1.605002e-09
-1.520816e-09
1.762608e-09
-2.417919e-10
1.563925e-09
-3.208932e-10
-1.243032e-09
1.35053e-09
-1.150596e-09
-1.999341e-10
1.222584e-09
1.218559e-10
-1.34444e-09
-1.192214e-09
-4.62308e-10
1.654522e-09
-1.043926e-09
-5.186402e-10
1.562566e-09
-1.604585e-09
-7.249313e-10
6.635776e-10
-2.031258e-09
1.36768e-09
2.136865e-10
-1.769519e-09
1.555833e-09
-1.521983e-09
5.402726e-10
9.817105e-10
8.202625e-10
-1.652894e-09
2.240657e-09
-2.111313e-09
-1.293436e-10
-2.402354e-10
-1.375734e-09
1.615969e-09
1.866621e-09
-1.555364e-09
-3.11258e-10
-3.292433e-10
-1.48745e-09
1.816693e-09
-2.695461e-10
-3.130135e-09
3.399681e-09
2.052453e-09
-1.277158e-09
-1.334184e-09
3.949717e-09
-2.615534e-09
-4.313647e-09
1.038208e-09
3.275439e-09
-1.729577e-09
1.283667e-09
4.459101e-10
-1.494547e-09
1.20094e-09
2.936064e-10
1.002209e-09
-1.498268e-09
1.578291e-09
-1.78356e-10
7.435825e-10
1.009006e-09
-1.752588e-09
-1.666685e-09
1.311885e-09
1.067748e-09
-2.299341e-09
1.268193e-09
-7.521438e-10
-5.160496e-10
7.368907e-10
-1.122522e-09
3.856312e-10
-2.189722e-09
1.390685e-09
7.990362e-10
-3.16104e-10
1.11617e-09
-8.000664e-10
-2.1286e-09
5.080363e-10
-8.971045e-11
1.502805e-09
-1.413094e-09
6.545009e-09
-4.618457e-09
-5.260154e-09
-7.567776e-10
6.016931e-09
1.066765e-09
-8.419495e-10
-2.248151e-10
-4.706545e-11
1.159385e-09
-1.837328e-09
2.21126e-09
-3.739328e-10
9.113259e-10
6.428108e-10
-1.554137e-09
-3.002826e-09
1.767976e-09
1.234849e-09
3.501678e-10
-1.872304e-09
1.522137e-09
6.871072e-10
8.961199e-10
-1.583227e-09
-1.623967e-09
9.130443e-11
1.532663e-09
-1.649253e-10
-1.394341e-09
1.559267e-09
4.505709e-11
-1.733712e-09
1.688655e-09
1.768558e-09
-1.318099e-09
5.233722e-11
-1.554162e-09
1.501825e-09
9.447444e-10
-2.239041e-09
1.294297e-09
4.813076e-10
-1.569313e-09
1.088005e-09
-8.848617e-10
1.964705e-09
-1.079843e-09
-1.976507e-09
9.140366e-11
1.885103e-09
1.965484e-09
2.019474e-10
1.258253e-09
1.143614e-10
-1.372614e-09
1.346927e-09
-6.114558e-10
-7.354716e-10
-8.217299e-10
-4.668248e-10
1.288555e-09
1.24026e-09
-1.974532e-09
7.342714e-10
-2.268615e-11
2.834945e-09
-2.812259e-09
1.976656e-09
-4.756942e-10
-1.500962e-09
1.190668e-09
-2.068765e-09
8.78097e-10
1.609928e-09
4.400336e-10
-2.049962e-09
2.064161e-09
-1.268522e-09
-7.956383e-10
1.28145e-09
3.047895e-10
-1.586239e-09
-6.052471e-10
1.813633e-09
-1.208386e-09
-1.428852e-09
9.53151e-10
4.757008e-10
-8.183596e-10
1.970017e-09
2.077418e-09
-1.035729e-09
-1.619686e-09
1.054238e-09
5.654482e-10
-7.998077e-11
-1.232054e-09
1.312035e-09
-1.416197e-09
1.300993e-09
1.152034e-10
7.264767e-10
-2.137563e-09
1.411086e-09
-2.182426e-11
1.698055e-09
-1.676231e-09
1.287573e-09
-1.163278e-09
-1.242946e-10
2.073949e-10
2.037185e-09
1.90125e-09
-1.462493e-09
-4.387564e-10
-2.872955e-09
4.636813e-09
-1.763858e-09
-5.473301e-10
-1.560557e-09
2.107887e-09
2.342445e-09
-1.109163e-09
-1.233282e-09
9.89188e-10
-1.685444e-09
6.962564e-10
1.81583e-09
-9.450316e-10
-8.707981e-10
-1.920104e-09
2.168462e-09
-2.483579e-10
-9.236035e-10
1.548365e-09
5.340772e-10
-2.082443e-09
1.149226e-09
7.175956e-10
-1.866821e-09
-1.477535e-09
1.573224e-09
-9.56889e-11
7.389982e-10
-1.054015e-09
3.150172e-10
-1.884921e-09
3.413756e-10
1.543546e-09
8.120802e-10
-1.945341e-09
1.13326e-09
4.2328e-09
-1.839276e-09
-2.393524e-09
-1.682199e-09
1.959922e-09
-2.777235e-10
2.058018e-09
-1.661853e-09
-3.961658e-10
-3.868058e-11
1.363241e-09
2.117136e-09
-1.670747e-09
1.829479e-09
-3.816662e-10
-1.447812e-09
1.993695e-09
-1.383577e-09
-6.101177e-10
7.621626e-11
1.639685e-09
-1.715901e-09
3.840092e-10
1.467394e-09
-1.851403e-09
1.434887e-09
-9.905823e-10
-4.443042e-10
-2.457546e-09
-2.367358e-09
-3.783021e-10
1.40593e-09
-1.027628e-09
-2.045272e-10
-1.849664e-09
2.054191e-09
-2.2151e-09
1.934729e-10
4.171654e-10
-1.91488e-09
1.497715e-09
-1.025335e-09
-5.353949e-10
1.560729e-09
-1.211243e-09
1.362981e-09
-1.517372e-10
1.828375e-09
-1.545859e-09
-2.825161e-10
1.418913e-09
-1.836086e-09
4.171732e-10
1.4499e-09
-1.04082e-09
-4.090802e-10
-1.640843e-09
1.560432e-09
8.041185e-11
8.2528e-10
-2.381325e-09
1.556045e-09
1.679948e-09
-1.690501e-09
1.055351e-11
-9.195728e-10
1.521119e-09
-6.015466e-10
-1.486434e-09
2.189014e-10
1.61013e-09
-4.972075e-10
-1.112923e-09
7.965219e-11
1.29974e-09
-1.379392e-09
-2.6681e-09
1.14437e-09
1.52373e-09
-2.309198e-10
1.569634e-09
-1.338714e-09
-5.924337e-10
-1.213973e-09
2.771782e-09
-1.557809e-09
-2.712985e-10
-1.107141e-09
1.37844e-09
1.999374e-09
-6.211979e-10
-1.378176e-09
1.203373e-09
-9.052706e-10
-2.981023e-10
-1.811038e-09
1.274776e-09
5.362612e-10
2.761252e-10
-2.421399e-09
2.145274e-09
-4.0075e-09
2.319838e-09
1.687662e-09
-4.832294e-09
1.522627e-09
3.309666e-09
2.888526e-09
-3.749878e-09
1.235026e-09
-2.076124e-09
8.410983e-10
-5.449082e-10
1.779934e-09
1.894178e-09
-9.106781e-10
-9.834997e-10
-2.186986e-09
1.322678e-09
1.379571e-09
-8.171779e-10
-5.623927e-10
8.520725e-10
-2.450074e-09
1.598002e-09
1.664365e-09
-1.278926e-09
-1.52207e-09
1.653018e-09
1.545358e-09
-1.019219e-10
-1.570199e-09
1.745489e-09
-1.752896e-10
-1.19225e-09
-4.372833e-10
4.139955e-10
-1.554828e-09
1.140832e-09
-1.774677e-09
1.376103e-09
3.985745e-10
2.062193e-09
-2.903766e-10
-1.771817e-09
-1.904936e-09
6.362795e-10
1.268656e-09
1.347127e-09
-6.035449e-10
1.348869e-09
4.036427e-10
-1.752512e-09
1.853096e-09
9.138275e-11
-1.944479e-09
-3.89656e-09
9.508491e-10
2.945711e-09
-1.311789e-09
-2.722682e-10
1.584058e-09
-6.452901e-09
1.73095e-09
4.721951e-09
-1.957199e-09
-2.84582e-10
2.241781e-09
3.58685e-10
-1.863512e-09
1.504827e-09
3.311167e-09
1.533551e-10
-2.395027e-09
1.680829e-09
7.141971e-10
1.209143e-09
-6.019225e-10
-6.072203e-10
-2.910431e-11
-1.866058e-09
1.895162e-09
1.446868e-09
4.290293e-10
-1.875898e-09
-1.674862e-09
1.122486e-09
5.523764e-10
1.53339e-10
-1.436525e-09
1.283186e-09
-1.982721e-09
6.30506e-10
1.352215e-09
4.405856e-10
-4.754233e-09
1.41868e-09
-1.009586e-09
-4.09094e-10
9.91927e-10
4.888822e-10
-1.480809e-09
8.806658e-10
-1.818383e-09
5.595316e-10
1.258851e-09
-4.536542e-09
6.831578e-10
3.853384e-09
1.557544e-09
2.170172e-10
-1.774561e-09
-1.376381e-10
1.738412e-09
-1.600774e-09
-7.909353e-10
1.199909e-09
7.700751e-10
1.196336e-09
-1.966411e-09
8.377345e-10
-1.608323e-09
7.705882e-10
-1.643799e-09
7.198394e-10
-1.948024e-09
1.053701e-09
8.943225e-10
-1.278447e-09
1.059944e-09
-9.144098e-10
9.409727e-10
-2.656291e-11
-1.271225e-09
2.152812e-09
-8.815871e-10
1.084519e-09
1.250183e-09
2.130692e-09
1.080509e-09
-3.2112e-09
-5.249748e-10
-1.481832e-09
2.006806e-09
-1.918248e-09
1.804312e-09
1.13936e-10
-6.491572e-10
-9.96328e-10
-8.036455e-10
3.149606e-09
-2.345961e-09
1.441538e-09
-1.80349e-10
1.271882e-09
-1.75324e-09
4.813575e-10
-8.917842e-10
1.715874e-09
-8.240898e-10
7.555814e-10
-1.948203e-09
1.192622e-09
-3.014027e-09
1.741413e-09
1.272614e-09
-2.015196e-10
-1.015719e-09
1.217239e-09
-9.883096e-11
1.198841e-09
-1.10001e-09
-4.743881e-09
9.969392e-10
-2.030074e-09
1.033135e-09
-9.230682e-10
1.738783e-09
-8.157147e-10
2.293652e-11
1.37876e-09
-1.401697e-09
8.960116e-10
6.586953e-10
-1.794305e-09
9.229441e-10
8.713609e-10
1.65719e-09
-2.776873e-10
-1.379503e-09
6.137781e-10
5.531786e-10
-1.166957e-09
1.737565e-09
-6.322298e-10
-1.105335e-09
2.203431e-09
8.213072e-10
-3.024738e-09
1.771756e-09
-3.06686e-10
9.424503e-10
-2.055596e-10
-1.171824e-09
3.695632e-10
2.341487e-10
1.710929e-09
-1.945078e-09
-9.245829e-10
-8.543089e-10
1.778892e-09
1.05111e-09
-1.524776e-09
4.736668e-10
-8.254954e-10
1.701624e-09
-8.761291e-10
6.4704e-10
-1.398705e-09
7.516652e-10
3.130989e-10
1.185002e-09
-1.498101e-09
-1.521049e-09
7.74889e-10
7.461596e-10
8.857578e-10
-1.757718e-09
8.719606e-10
1.693939e-09
-5.278247e-10
-1.166115e-09
-8.535194e-10
1.791006e-09
-9.374868e-10
-1.293761e-09
2.227264e-09
-1.144982e-09
1.406944e-09
-2.619626e-10
-3.368897e-09
8.925181e-10
-1.493616e-09
1.331838e-09
1.617778e-10
-7.140979e-10
-1.527621e-09
2.241719e-09
1.063682e-09
-1.110747e-09
7.199593e-10
-1.626015e-09
9.060558e-10
1.276567e-09
6.631145e-10
-1.939682e-09
-7.65489e-10
-1.062815e-09
1.828304e-09
1.999014e-09
-6.679969e-10
-2.316192e-09
7.608155e-10
1.555376e-09
1.856207e-09
3.063843e-10
-2.162591e-09
1.918924e-09
-3.110576e-09
1.191652e-09
-3.152861e-10
-1.375899e-09
1.691186e-09
-1.095325e-09
-7.498654e-10
1.84519e-09
-7.89147e-10
-1.088548e-09
1.877695e-09
-2.029869e-09
6.136729e-10
-1.222744e-09
1.681906e-09
1.438041e-09
-8.242633e-10
6.265536e-10
-2.456325e-09
4.077378e-10
-1.277696e-09
9.197725e-10
3.579231e-10
-2.726206e-09
3.867933e-09
-1.141727e-09
5.154943e-10
1.436816e-09
1.635593e-09
-1.659782e-09
2.418861e-11
1.316546e-09
-2.569092e-10
-1.059637e-09
9.356715e-10
9.630157e-10
-1.898687e-09
1.381233e-09
3.834089e-10
1.922538e-09
-1.202579e-09
1.274944e-09
-1.294256e-09
1.931157e-11
1.383983e-09
-1.128652e-09
-2.55331e-10
1.694662e-09
-9.403785e-10
-7.54284e-10
1.260907e-09
-1.017951e-13
-1.260806e-09
5.706269e-11
1.671171e-09
-1.728234e-09
9.271805e-10
-2.030289e-09
1.164966e-09
-8.305874e-10
1.370871e-09
-5.402832e-10
2.01654e-09
-1.337654e-09
-6.788855e-10
-1.5246e-09
1.606579e-09
-8.197926e-11
3.121739e-09
-5.909095e-09
2.787356e-09
-4.161421e-09
4.182918e-09
-2.149722e-11
1.301537e-09
-1.2492e-09
-1.033715e-09
-8.634407e-10
1.897156e-09
1.915774e-09
-1.252245e-09
-6.635287e-10
2.036569e-09
-3.948844e-10
-1.641684e-09
-7.053342e-10
-1.019724e-09
1.725058e-09
-1.567476e-09
-2.454082e-10
-6.873228e-11
-1.328657e-09
1.39739e-09
1.168973e-09
1.868832e-09
-3.037805e-09
4.853541e-10
-1.347267e-09
8.619124e-10
-7.081079e-10
-6.486434e-10
1.356751e-09
-9.795362e-10
-3.754076e-10
1.354944e-09
1.775316e-09
3.545878e-10
1.088554e-09
5.642186e-12
-1.094196e-09
1.656537e-09
-1.737534e-09
8.099727e-11
-9.733408e-10
1.190791e-09
-2.174506e-10
-1.343974e-09
4.536501e-10
-1.091411e-09
8.649061e-10
2.265046e-10
2.158866e-09
-7.876614e-10
-1.371205e-09
-1.981919e-09
1.099715e-09
8.822036e-10
-1.347475e-09
1.406019e-09
-5.854432e-11
-6.553996e-10
1.737534e-09
-1.003238e-09
1.614956e-09
-6.117178e-10
2.849218e-10
1.506278e-09
-1.7912e-09
-7.796344e-10
-7.818493e-10
1.561484e-09
-1.499057e-09
-2.496033e-10
1.74866e-09
-1.260974e-09
4.341451e-11
-1.831364e-09
4.461734e-10
1.385191e-09
1.1025e-11
-2.209126e-09
2.198101e-09
1.672113e-09
3.803398e-10
-1.250828e-09
2.402878e-10
1.01054e-09
-3.56283e-09
2.662657e-09
9.001733e-10
-1.250443e-09
1.735797e-09
1.556319e-10
-4.052192e-09
-1.623433e-09
-3.592885e-10
8.220425e-09
-8.220425e-09
1.631527e-09
-1.46207e-09
-1.797388e-09
5.694703e-10
1.227918e-09
1.165383e-09
7.104496e-10
-1.875832e-09
-1.379744e-09
4.772616e-09
1.209979e-09
6.751726e-09
-7.961704e-09
-1.197543e-09
1.846773e-09
-6.492306e-10
6.863103e-10
-1.805361e-09
1.119051e-09
1.051216e-09
-2.761831e-10
1.028857e-09
-1.491014e-09
4.621568e-10
9.447394e-10
-1.976417e-09
2.023814e-09
-4.483758e-10
-1.575439e-09
1.2997e-09
9.210554e-10
-2.220756e-09
2.031993e-09
-3.097135e-10
9.39682e-10
1.014273e-09
3.934439e-10
1.374132e-09
-1.946174e-09
1.869849e-09
-1.824792e-09
1.884488e-09
2.370833e-10
-2.121572e-09
1.440168e-09
1.655476e-10
-1.605716e-09
-1.167242e-09
1.682736e-09
-5.283371e-10
-4.503794e-09
5.032131e-09
-2.102014e-10
-1.360591e-09
1.570792e-09
8.784909e-10
-9.773219e-10
1.60651e-09
-1.612409e-09
5.870749e-10
2.801146e-09
1.006258e-10
-2.901772e-09
1.216998e-09
-8.674621e-10
-3.495364e-10
6.074253e-10
1.026934e-09
-1.634359e-09
8.266684e-11
1.364201e-09
1.329527e-09
-1.95808e-09
6.285524e-10
-1.866316e-10
-2.539575e-09
3.037932e-10
-1.439584e-09
1.135791e-09
-1.304379e-09
1.327037e-09
-1.167606e-09
-1.106141e-09
1.109729e-09
-3.588522e-12
1.868109e-09
4.466444e-10
-2.314754e-09
8.508954e-11
1.744389e-09
1.359216e-09
-1.302153e-09
4.430475e-10
-1.633419e-09
1.190371e-09
2.202e-12
-1.346176e-09
2.260436e-10
1.208285e-09
-1.830126e-09
3.232728e-10
-1.764886e-09
1.419014e-09
3.458723e-10
-2.047259e-09
2.029369e-10
1.844322e-09
-1.664171e-10
-1.469463e-09
1.63588e-09
1.408767e-09
5.5432e-10
-1.963087e-09
1.967292e-10
-1.230054e-09
1.033325e-09
2.355995e-09
1.746897e-09
1.386119e-10
-1.230999e-09
1.629076e-10
1.068091e-09
-1.12826e-09
-1.808567e-09
2.936827e-09
4.713682e-10
1.588728e-09
-2.060096e-09
-2.166989e-09
2.911093e-10
4.483588e-10
-2.324383e-09
1.876024e-09
-6.675555e-10
-4.946926e-11
-1.366798e-09
1.785922e-09
-2.77501e-10
-1.508421e-09
8.674722e-10
-1.597948e-09
7.304757e-10
-4.487257e-09
4.513191e-09
-2.593463e-11
-1.669424e-09
1.36071e-09
3.757618e-09
-4.265835e-09
5.08217e-10
6.407411e-09
1.895468e-09
6.369168e-10
1.2532e-09
-1.890116e-09
1.661401e-09
-2.585004e-09
1.431656e-09
-1.74892e-09
3.172641e-10
9.499211e-10
4.296495e-10
6.434085e-10
8.353747e-10
-1.478783e-09
-1.78079e-09
2.424198e-09
-1.325861e-09
1.01813e-09
3.077309e-10
4.06963e-11
1.59334e-09
-1.634036e-09
1.832446e-09
-1.87254e-09
9.824802e-10
4.209309e-10
1.35346e-10
1.789594e-09
-1.92494e-09
3.855357e-10
1.38108e-09
-1.698348e-09
3.172676e-10
1.585896e-09
-2.178943e-09
1.231031e-10
9.405784e-10
-1.807702e-09
2.019784e-09
-2.120826e-10
5.959733e-10
1.494392e-09
-2.090366e-09
-1.171406e-09
-4.516723e-10
1.623078e-09
6.501686e-10
-3.455401e-10
-7.658845e-10
1.111425e-09
-6.759327e-11
1.625137e-09
3.521265e-10
-1.801971e-09
1.449844e-09
9.668378e-10
4.518421e-10
-1.143691e-09
-3.806151e-10
1.524306e-09
-1.625821e-10
1.668007e-09
-1.505425e-09
5.123572e-10
1.25685e-09
-1.769207e-09
-8.313406e-10
-8.380833e-10
-2.617115e-10
-2.539135e-09
-2.858441e-10
1.853857e-09
5.271749e-10
-1.191882e-09
6.647067e-10
-8.970877e-11
1.71589e-09
-1.626181e-09
6.847983e-10
-1.384806e-09
7.000072e-10
-2.198637e-09
6.773297e-10
1.521307e-09
-2.961037e-10
1.924427e-09
-1.628324e-09
1.226193e-09
1.234783e-10
-1.349671e-09
1.110815e-09
8.29235e-10
-1.94005e-09
-4.754999e-10
-1.245735e-09
1.721235e-09
1.169278e-09
-1.874612e-09
-1.261313e-09
-2.814668e-10
1.54278e-09
1.061899e-09
-1.931396e-09
-1.497908e-09
1.46008e-09
3.782828e-11
-1.581988e-09
-1.517241e-10
-1.584679e-09
1.77286e-09
-1.881814e-10
7.96986e-10
-1.728792e-09
9.318056e-10
-1.95447e-09
4.551128e-10
1.499358e-09
-1.054706e-10
1.080845e-09
-9.753748e-10
-7.859253e-10
8.34398e-09
-7.558055e-09
-1.100808e-09
1.334957e-09
-2.05559e-09
8.663032e-10
1.189287e-09
1.367382e-09
4.502317e-09
-4.043056e-10
-4.098011e-09
1.441982e-09
-2.002661e-09
3.057183e-09
-4.436927e-09
7.476364e-10
5.99491e-10
1.548849e-09
-1.950371e-09
6.717486e-10
1.278623e-09
8.665416e-09
-8.665416e-09
1.188015e-09
-1.234034e-09
4.601926e-11
-1.133649e-11
-2.18425e-09
-2.050243e-10
-1.689001e-09
1.894025e-09
-1.456545e-09
1.417764e-09
3.878101e-11
2.2822e-10
1.278537e-09
-1.506757e-09
1.22348e-09
1.971615e-10
-1.420642e-09
-5.227911e-10
2.154456e-09
-1.631665e-09
-2.532938e-10
-1.193916e-09
1.447209e-09
-3.452598e-10
-1.473123e-09
1.95305e-09
-5.235041e-10
-1.321123e-09
1.167035e-09
1.540876e-10
-6.792624e-10
1.890535e-09
-1.211273e-09
-4.797093e-10
2.020353e-09
-1.625197e-10
-1.711615e-09
1.874135e-09
-5.82298e-10
-1.335591e-09
1.917889e-09
3.742878e-10
1.422096e-09
-1.796384e-09
5.45264e-10
1.113738e-09
-1.956076e-09
6.086015e-10
-1.272253e-09
-6.026805e-10
1.874934e-09
-1.782512e-09
3.899239e-10
1.392588e-09
-2.085296e-09
1.332044e-10
1.952091e-09
3.481871e-10
-1.957855e-09
1.609668e-09
-1.768106e-09
1.21428e-09
-1.842725e-09
6.284454e-10
-1.866112e-09
1.570008e-09
1.287509e-09
-2.757725e-09
1.470216e-09
-4.174196e-09
2.077193e-09
2.097003e-09
-1.974006e-09
-6.940948e-10
8.836916e-10
-1.480952e-09
5.972601e-10
1.797093e-09
-9.836609e-10
-8.134322e-10
-1.254389e-09
4.999242e-10
1.738642e-09
-2.07504e-09
3.363977e-10
-1.201418e-09
-8.478454e-11
6.806731e-09
-4.172936e-09
-2.633795e-09
-1.286835e-09
4.207708e-10
8.660641e-10
8.002136e-10
-1.570549e-09
-1.133669e-09
-3.87138e-10
1.520807e-09
1.09777e-09
-1.330743e-09
-7.950472e-10
-4.612383e-10
1.256285e-09
2.690335e-09
4.923616e-09
-9.516522e-10
1.816732e-09
-8.650801e-10
1.832055e-09
4.399489e-11
-1.87605e-09
8.045541e-10
-2.106685e-09
-2.725609e-09
-8.908498e-10
2.012211e-09
-1.548952e-09
1.573771e-09
-8.043125e-10
-7.694581e-10
2.560604e-10
1.258294e-09
-1.514354e-09
3.783154e-10
-9.847837e-10
-3.639173e-10
-1.052956e-09
-4.113502e-09
5.454311e-10
1.018494e-09
1.521056e-09
-1.352832e-09
-1.682236e-10
5.044779e-10
-1.548404e-09
1.521133e-09
-5.292911e-10
9.031853e-10
3.22756e-10
-1.225941e-09