/*--------------------------------*- C++ -*----------------------------------*\
| =========                 |                                                 |
| \\      /  F ield         | OpenFOAM: The Open Source CFD Toolbox           |
|  \\    /   O peration     | Version:  2406                                  |
|   \\  /    A nd           | Website:  www.openfoam.com                      |
|    \\/     M anipulation  |                                                 |
\*---------------------------------------------------------------------------*/
FoamFile
{
    version     2.0;
    format      ascii;
    arch        "LSB;label=32;scalar=64";
    class       volVectorField;
    location    "0.3";
    object      U;
}
// * * * * * * * * * * * * * * * * * * * * * * * * * * * * * * * * * * * * * //

dimensions      [0 1 -1 0 0 0 0];

internalField   nonuniform List<vector> 
4536
(
(0.009014738 -0.001650673 -1.012846e-23)
(0.0101144 0.0006862418 0)
(0.01090772 -0.0008907568 -7.589993e-25)
(0.008292999 -0.001746631 -5.036893e-24)
(0.00937097 -3.93128e-05 -2.635316e-23)
(0.009099182 -0.0003172811 1.824664e-23)
(0.01009895 0.0006292222 -8.028201e-24)
(0.01017807 0.0006165149 -1.472655e-23)
(0.01152748 0.0001773794 3.286517e-25)
(0.009764953 0.0007075992 4.48137e-24)
(0.01093362 -0.001030897 0)
(0.01115615 -0.0006002443 0)
(0.01012164 -0.001478705 -2.133525e-24)
(0.009810312 0.0004362457 0)
(0.01010248 0.0007942758 -1.65173e-23)
(0.01076941 0.0004184192 1.47586e-23)
(0.009922073 0.001164311 1.016213e-23)
(0.01082284 -0.001034173 0)
(0.009541267 -0.0002019042 -3.324381e-24)
(0.008611475 0.002573197 1.045855e-23)
(0.01014746 0.0004063362 8.065379e-24)
(0.01022644 0.0006166103 1.246457e-23)
(0.01129114 -0.0001923678 -1.097594e-25)
(0.01030977 0.001232005 -6.210751e-24)
(0.01146738 -0.000182712 0)
(0.008755807 0.0003416545 0)
(0.01034883 0.0006342769 5.750788e-24)
(0.01011537 0.0004889126 -3.925465e-26)
(0.008176096 -0.001554685 0)
(0.01094516 -9.979436e-05 -7.194243e-24)
(0.01102735 0.001108364 0)
(0.01088073 -0.0006519416 -5.969755e-25)
(0.009744101 0.0008655224 3.836187e-23)
(0.01091075 0.0003267521 5.609413e-24)
(0.01056078 0.0003146124 3.4705e-24)
(0.009771904 0.0005959127 0)
(0.01003268 0.00051293 -5.708843e-24)
(0.009997414 0.0001638659 0)
(0.01010939 0.0005478286 6.612191e-24)
(0.01100131 0.0003823191 3.015651e-24)
(0.01064044 0.001155368 4.319555e-24)
(0.01117098 0.00049405 2.662785e-26)
(0.01006017 0.0005249734 0)
(0.008857347 0.001248969 2.088289e-23)
(0.01063112 0.000358546 5.172102e-24)
(0.008989977 -0.001607635 -6.103061e-24)
(0.01031934 0.001148609 0)
(0.01100314 0.0007294617 0)
(0.01070773 -0.001167965 0)
(0.009696637 0.001008631 -1.785653e-23)
(0.009740747 0.002493617 0)
(0.009270853 0.0007975635 2.247626e-23)
(0.010392 0.0007209215 9.3518e-24)
(0.01126044 -0.0006849576 -9.025833e-25)
(0.00863055 -8.748496e-05 0)
(0.009803388 0.0003999747 0)
(0.00932813 0.0005917146 3.773056e-23)
(0.01086528 0.0009551387 0)
(0.009621621 -0.0008094822 0)
(0.01064277 -0.001078626 1.014298e-24)
(0.009040045 0.002174503 -3.442436e-24)
(0.01069896 0.001246417 5.27572e-24)
(0.01087002 -0.001092432 0)
(0.009986536 0.001247307 2.457505e-23)
(0.01057524 0.0005949351 1.961293e-23)
(0.01122434 0.000122604 -4.66637e-24)
(0.01012078 0.0007389081 -6.458319e-24)
(0.01122056 0.0003573878 4.719788e-24)
(0.01009485 7.304264e-05 -4.222671e-24)
(0.01130621 9.804098e-05 -1.780681e-25)
(0.01069908 0.0009438572 0)
(0.009693162 0.0007680774 3.160662e-23)
(0.01134576 -0.0002042636 0)
(0.009952291 -0.001518898 0)
(0.0100142 0.0001283402 7.168907e-24)
(0.01140581 -0.000376908 0)
(0.0114438 0.0008027603 0)
(0.01006834 0.0009632435 0)
(0.009537587 -0.001561581 0)
(0.01116468 -0.0005210609 -7.646599e-25)
(0.01082049 0.001070264 0)
(0.007651162 -6.233079e-05 0)
(0.005860042 0.002119693 3.770356e-23)
(0.0102743 -0.001413254 4.431585e-24)
(0.009481069 0.001198232 0)
(0.01066771 0.001027007 -1.355176e-23)
(0.01052476 0.0007348796 0)
(0.01040752 0.0004645212 -1.544043e-23)
(0.01075832 0.0008159499 0)
(0.008917112 0.00262673 1.202318e-23)
(0.01009112 0.000745674 7.599436e-24)
(0.009508599 0.0003034486 -2.008877e-23)
(0.009631511 0.0005854848 0)
(0.01117516 0.001160384 1.879659e-24)
(0.01031057 0.0008966265 1.180277e-23)
(0.00997098 0.0004047131 -9.087483e-24)
(0.01150358 -6.661786e-05 -1.614711e-24)
(0.01012553 0.0008234122 2.034121e-23)
(0.009149764 -0.001543205 -8.565703e-24)
(0.01087108 -6.692848e-05 1.696193e-24)
(0.008072608 -0.001744592 0)
(0.01104548 -0.0003680932 9.35372e-25)
(0.01086114 0.000366919 0)
(0.009958681 0.0002315055 1.758685e-24)
(0.01022734 -0.001420444 -8.944699e-24)
(0.01090309 -0.001023553 0)
(0.01081282 0.0007101524 -7.658004e-24)
(0.01046738 -0.001184702 0)
(0.0106754 0.001498011 0)
(0.01071766 0.001928355 0)
(0.006629169 0.001442442 -3.394658e-23)
(0.009946659 0.00113122 -7.023168e-24)
(0.01024356 0.0005533893 1.593265e-23)
(0.009586664 0.000693804 0)
(0.01003489 0.0006419084 2.601541e-24)
(0.01133818 -0.0002529302 4.591739e-25)
(0.009271365 -0.001619819 4.491825e-24)
(0.01034635 0.0005784583 9.805894e-24)
(0.009913459 0.0005870615 0)
(0.01105855 0.0002813927 8.334834e-26)
(0.01127536 -9.377618e-05 5.304873e-25)
(0.01085734 0.0002063304 -7.016452e-24)
(0.01108224 -0.0004833387 1.988879e-24)
(0.01066518 0.0005753985 0)
(0.01080888 0.001699569 8.207644e-25)
(0.007925013 0.00268006 -1.889918e-23)
(0.009895427 0.0003730387 -1.261535e-23)
(0.01061368 0.0004945539 -8.197806e-24)
(0.01146826 0.0008868901 4.512488e-24)
(0.009702987 0.0004440801 0)
(0.009207685 -0.001589925 0)
(0.01132088 -0.0005413699 1.291493e-25)
(0.008982844 0.0007098375 0)
(0.01027532 0.0005228766 1.595958e-23)
(0.008510862 0.0007347298 6.88188e-25)
(0.01017843 0.0004737826 1.012559e-24)
(0.009909958 -0.001545585 0)
(0.01149582 0.0002385643 1.1694e-24)
(0.01010976 0.0004783161 0)
(0.01086801 0.0004352697 -4.329812e-24)
(0.009974775 0.0002200152 0)
(0.01115925 -0.0003670407 0)
(0.01106729 0.0004352036 0)
(0.009767642 0.0006770498 -1.504307e-23)
(0.01021175 0.000473592 9.588456e-26)
(0.01065871 -0.001039532 -8.101689e-25)
(0.01115541 0.001443027 -1.173273e-24)
(0.01004634 0.002164595 2.766301e-24)
(0.01013489 0.000805909 -1.262897e-23)
(0.008681876 5.442393e-05 -3.108418e-23)
(0.01026047 0.0006708643 0)
(0.0100207 0.0004993697 1.922498e-23)
(0.01134311 -0.0003942294 -1.859533e-25)
(0.0106641 0.0004004316 0)
(0.009345874 0.0001154096 3.067968e-23)
(0.009354506 0.0006583766 5.918437e-24)
(0.009513727 8.10859e-05 1.592434e-23)
(0.01123831 0.001249875 1.130506e-23)
(0.009986376 0.0009523917 -1.725233e-24)
(0.01126959 -0.0004989088 5.081055e-25)
(0.01156698 0.0004207362 0)
(0.01000093 0.0002021487 5.041861e-25)
(0.01131808 -0.0002762962 0)
(0.009842772 0.000487062 -3.114707e-23)
(0.006929039 0.002902204 2.854674e-23)
(0.01002154 0.0003232447 -2.394045e-23)
(0.01118595 0.0002621413 -3.291149e-24)
(0.01039492 0.0005442751 0)
(0.01098844 -0.0005909229 -3.131746e-25)
(0.008711219 0.002422659 -3.222718e-23)
(0.009556411 4.098615e-07 -3.113032e-23)
(0.009976764 0.0004973614 0)
(0.01057656 0.0002601654 -1.065483e-23)
(0.005747461 0.001826624 4.762912e-23)
(0.01063846 0.0009275059 -2.882947e-25)
(0.009417207 -6.515913e-05 -8.328417e-24)
(0.01154871 0.000396077 -2.25814e-24)
(0.01020613 0.0005730637 -1.806154e-24)
(0.01010969 0.001727098 0)
(0.01062823 0.000593924 0)
(0.01086587 0.000590526 -3.031243e-24)
(0.01011838 0.0004578624 -5.023343e-24)
(0.007317175 0.0005260486 0)
(0.00980716 0.0001021646 1.299268e-23)
(0.009169801 -0.0002300541 -1.54278e-23)
(0.007961275 0.000510125 -2.709978e-23)
(0.01106319 -0.0004936244 -1.491714e-26)
(0.01065858 0.0008930112 -1.466745e-23)
(0.01149533 0.0004279195 -2.620828e-24)
(0.01053647 0.0007544815 0)
(0.01133208 -0.0005391027 -1.570013e-25)
(0.008280398 -0.001601046 -4.077018e-24)
(0.0114948 -0.0001872232 0)
(0.009873668 -0.001386239 6.040472e-25)
(0.01093721 -0.0006068563 -8.832428e-25)
(0.008487721 0.001385318 -2.393591e-23)
(0.008677234 0.001931721 0)
(0.009258736 0.001660126 1.91065e-23)
(0.009215087 0.00142853 0)
(0.00990533 0.0006348761 -5.841752e-24)
(0.01060568 0.001734013 -3.770908e-24)
(0.01064716 0.001226732 -4.153541e-24)
(0.01015031 0.0005578038 6.586053e-24)
(0.01018844 0.0006477626 0)
(0.01000819 0.0001529833 0)
(0.01035621 0.00138367 0)
(0.01073551 0.001143481 1.248096e-23)
(0.01034859 -0.001392863 -6.234271e-24)
(0.01020108 0.0009232703 0)
(0.008258402 0.002858101 -8.018482e-24)
(0.01011925 -0.001478975 4.48057e-24)
(0.01028197 0.0002242615 0)
(0.01128067 0.00114697 -7.465895e-24)
(0.008692975 0.0007309306 0)
(0.01072366 0.0005474602 0)
(0.01013811 0.0004734388 -1.953472e-23)
(0.01095136 -0.001027281 1.131133e-24)
(0.01137009 5.813697e-06 -2.90978e-24)
(0.009908962 0.000563247 0)
(0.009781622 0.0009458971 5.273395e-24)
(0.01137124 0.001065031 -5.229009e-24)
(0.01056976 0.0006501501 -7.302766e-24)
(0.01147638 0.0006459639 2.666511e-26)
(0.0114274 -0.0004006282 -1.541107e-24)
(0.01140582 -0.0002810837 6.546562e-26)
(0.01064841 0.0007429883 1.14828e-23)
(0.01053176 0.0009813746 1.892256e-23)
(0.009573775 -0.001614382 -8.515535e-24)
(0.01035087 0.001293205 4.694273e-24)
(0.0106673 -0.001222 0)
(0.01087183 0.0008499054 -5.705569e-24)
(0.01085305 -0.001096514 0)
(0.01108514 9.89217e-05 0)
(0.009362014 0.001205855 1.913874e-23)
(0.01139219 0.001042626 2.76099e-24)
(0.009155712 0.001027977 0)
(0.00685689 2.824947e-05 -4.413972e-23)
(0.009777289 0.0007972701 -9.004423e-24)
(0.01026792 0.0006245032 -4.915722e-24)
(0.01123378 0.0007272277 4.600414e-24)
(0.01119996 -0.0006634803 1.791269e-25)
(0.009434225 0.0005040764 -2.033857e-23)
(0.0108572 0.000300924 6.376804e-24)
(0.01076406 0.0007133609 -1.264725e-23)
(0.009340116 -4.362454e-05 5.375403e-25)
(0.01073868 -3.828213e-05 1.186998e-24)
(0.01103834 -0.0001372216 -2.526241e-24)
(0.01023224 0.0001536598 1.501694e-24)
(0.01009866 0.0005701132 -1.196441e-23)
(0.01082902 0.0001296512 8.142235e-25)
(0.01146999 0.0002479958 -3.906016e-25)
(0.009595836 0.0004264126 -2.924678e-23)
(0.00776128 0.0007225034 -3.34244e-23)
(0.007264631 0.001968192 0)
(0.00946035 0.0005318372 -1.668722e-23)
(0.01061457 0.001992033 -1.050327e-23)
(0.01140641 3.528588e-05 -2.941378e-24)
(0.01061042 0.001774485 0)
(0.01103245 -0.0004525221 -1.595834e-24)
(0.01118114 -0.0004664391 -1.039884e-24)
(0.01008404 0.0005001153 -2.302983e-23)
(0.01028641 0.0007824853 1.970181e-23)
(0.00956253 0.0003702684 6.538406e-25)
(0.008712206 -0.00155925 6.157303e-24)
(0.006398387 0.001556717 -3.784012e-23)
(0.01129352 -0.0001636698 3.289379e-24)
(0.01070618 7.772792e-05 -6.402187e-24)
(0.01119012 0.0008606529 8.743956e-24)
(0.009158508 0.000698917 -1.403073e-25)
(0.009767185 0.001001895 -1.207636e-25)
(0.01088592 -0.0008774737 1.11266e-24)
(0.01094062 0.0004113153 -6.803722e-24)
(0.008751375 -0.001722064 3.606827e-24)
(0.009568723 0.0009344835 -9.079111e-24)
(0.01019142 0.0005508424 -4.013243e-24)
(0.01075337 3.827021e-06 -8.039972e-25)
(0.01136337 0.001129798 -1.258898e-24)
(0.01097482 0.000137083 6.405512e-24)
(0.009696996 0.000255045 2.643949e-23)
(0.009030533 2.454584e-05 -2.181341e-23)
(0.01092526 0.001401606 8.880761e-24)
(0.009980188 0.001588224 2.538789e-24)
(0.00836255 0.001066149 1.820054e-23)
(0.0100255 0.0004167108 1.741385e-23)
(0.009580254 -0.001485046 0)
(0.01132937 0.001143558 5.541899e-24)
(0.01105063 0.0009598547 -7.916281e-24)
(0.008297247 0.001629548 3.131407e-24)
(0.009933219 0.0003865827 6.688231e-24)
(0.0110704 -0.0004375683 -2.00957e-24)
(0.01130972 -0.0006205148 0)
(0.01148329 0.0001544403 4.62449e-25)
(0.01097048 0.001530737 -7.402934e-24)
(0.01019162 0.0009732359 3.195651e-23)
(0.01027835 0.001346096 0)
(0.01036762 0.001089984 1.649062e-23)
(0.01123053 9.865244e-05 -7.142761e-24)
(0.01108918 0.0004376235 6.884175e-24)
(0.01013265 0.001107561 1.222774e-23)
(0.01012515 0.0004886243 -5.631716e-24)
(0.01111047 0.0002839455 3.412411e-25)
(0.01117244 0.0001453184 0)
(0.01128974 0.0007635453 4.696545e-24)
(0.01103412 -0.0009559944 5.88604e-25)
(0.008812008 -0.001479519 5.663808e-24)
(0.00870666 -0.00160944 -8.508666e-25)
(0.008397153 -0.00172905 2.164052e-24)
(0.01089118 -0.0002882916 1.986295e-24)
(0.01141941 0.0006876895 0)
(0.009659767 0.0008203622 1.587513e-23)
(0.01043317 0.0006742413 0)
(0.008636335 0.0004276876 2.176576e-23)
(0.008969196 -0.0001030759 -5.413216e-23)
(0.01073348 0.0005870051 2.291576e-23)
(0.01028573 0.0004527808 7.625753e-25)
(0.01032715 0.0006696064 -1.829417e-23)
(0.01006093 0.001227141 7.888551e-24)
(0.009771066 0.0001647181 -1.042062e-23)
(0.0103071 0.0008724724 9.22504e-24)
(0.01033413 0.0007830055 1.129651e-23)
(0.01011524 0.0003378048 0)
(0.01030244 0.0007940735 9.23931e-24)
(0.01028203 0.0006693573 9.582808e-24)
(0.01037538 0.0006589392 -1.272544e-23)
(0.009535282 0.0008585766 0)
(0.008603397 0.0006887368 -6.613078e-25)
(0.01108552 0.000840486 2.123704e-24)
(0.01015792 0.0007026845 1.586385e-23)
(0.01010094 0.0004798695 -1.802934e-23)
(0.01116233 0.0006503455 3.495203e-24)
(0.01129534 -4.217946e-05 0)
(0.01116466 0.0005679446 -8.924126e-24)
(0.01111519 -0.0004930562 0)
(0.01145345 -6.664492e-05 -1.464598e-24)
(0.008618987 -0.001673428 4.383526e-24)
(0.01113084 -0.00010838 -2.496795e-24)
(0.01025523 0.001702025 -7.805335e-24)
(0.009642107 0.001399905 1.502541e-23)
(0.0100405 0.001660718 3.088016e-23)
(0.009915677 0.001389925 2.281819e-23)
(0.01136222 0.0002522276 0)
(0.009095381 0.001538189 1.63393e-23)
(0.01126111 0.000815712 -4.892015e-24)
(0.01047511 -0.0006121195 0)
(0.0108974 0.001256665 0)
(0.008422673 0.0009009034 -1.882336e-23)
(0.01019316 0.0005783876 0)
(0.01087707 0.0004908492 1.811451e-23)
(0.01015442 0.0009911845 4.381141e-24)
(0.01036716 0.001984132 7.956278e-24)
(0.009458061 0.0003627024 4.277797e-23)
(0.01058536 0.0004348774 0)
(0.01148808 -0.0002364908 -4.343931e-25)
(0.01038924 0.0004014407 9.819008e-24)
(0.00992732 0.000123269 3.468625e-23)
(0.009669248 0.0004817416 5.487777e-24)
(0.009554241 0.0005384872 -2.093807e-23)
(0.008527537 0.001881279 -2.425195e-23)
(0.01040276 0.0007358683 0)
(0.008115766 -0.0002093864 -2.064792e-23)
(0.01106828 -0.0004078032 -2.531503e-24)
(0.0102011 0.0004500836 2.008128e-23)
(0.007783762 0.0004470904 -2.332856e-23)
(0.009728378 0.001848839 4.040529e-24)
(0.01024699 0.0005146545 -3.092639e-23)
(0.006360714 0.002790173 1.833234e-23)
(0.01115235 0.0008542978 -9.847137e-24)
(0.009584544 -0.001410925 -1.041363e-24)
(0.01076801 -5.592501e-05 -5.405298e-24)
(0.01078323 -0.0001496376 -2.208066e-24)
(0.009032652 0.0001125536 -2.315981e-24)
(0.01003557 0.000662357 -2.577133e-23)
(0.01149765 0.0006940433 0)
(0.009556954 0.002333708 0)
(0.01019695 0.000412826 -1.278704e-23)
(0.01064539 -0.001233814 0)
(0.009990944 0.001942007 -2.571951e-24)
(0.009293419 0.0008892954 -1.812729e-23)
(0.01119282 9.943176e-05 -9.500846e-24)
(0.01133455 0.0003273104 2.306696e-24)
(0.009619212 0.0008162314 3.730766e-23)
(0.009960509 0.0008062613 0)
(0.01016131 0.001254034 -1.440328e-23)
(0.01027819 0.0007294311 1.790266e-23)
(0.01112425 0.0004670473 2.960572e-24)
(0.01144912 0.0008414598 1.555918e-24)
(0.01157041 0.0003442508 0)
(0.009567514 0.0001481379 4.035163e-23)
(0.007833097 0.002307246 -4.389388e-23)
(0.006735696 0.001085819 -3.709992e-23)
(0.009647109 0.0004420157 0)
(0.01106443 9.926566e-06 4.231785e-25)
(0.01148697 -0.0002695383 1.42788e-25)
(0.009956315 0.0006487481 -8.570431e-24)
(0.01143008 0.000370702 3.635306e-24)
(0.01119958 -0.0004982601 -1.010743e-24)
(0.00932646 0.0003539967 4.430361e-24)
(0.009961914 0.002264941 0)
(0.0101246 0.002313969 2.393801e-24)
(0.0104584 0.0002152495 -3.837771e-24)
(0.00931333 7.497735e-05 -1.919526e-24)
(0.008243249 -0.001762747 4.579226e-24)
(0.009422178 0.0003128891 -7.155396e-24)
(0.009140756 0.0001286195 -1.467565e-23)
(0.01041724 0.0006131276 0)
(0.009608525 0.0002091531 1.414488e-23)
(0.00952492 0.0001863682 -1.505211e-23)
(0.01138216 -0.0004853478 1.99436e-24)
(0.01112891 -0.00028379 -9.54182e-25)
(0.01012356 0.0002696921 2.477431e-23)
(0.0110728 -0.0008313051 9.828885e-25)
(0.01000074 0.0004823473 1.614993e-23)
(0.009157276 0.0003292075 -1.765258e-23)
(0.009212755 -5.933592e-05 -4.296551e-23)
(0.01109759 -0.0007233193 -2.878579e-24)
(0.01089131 -0.0003252446 -2.700309e-24)
(0.01117997 0.001257355 7.440834e-24)
(0.0107905 0.001756239 5.743912e-24)
(0.01089724 0.0006245276 9.121238e-24)
(0.009883077 -0.001476692 3.523628e-24)
(0.01075376 -0.001175627 0)
(0.01057082 0.001631771 0)
(0.009945389 0.0003130414 -1.142526e-23)
(0.01133172 0.0003200957 4.520197e-24)
(0.01018127 0.001159179 -7.37091e-24)
(0.01038401 0.001124378 -6.943055e-24)
(0.0108279 0.001028412 -7.7726e-24)
(0.01093048 0.001309673 0)
(0.01048356 0.001019886 -6.309406e-24)
(0.0105213 0.00119693 -6.186245e-24)
(0.009688536 0.000357439 3.006244e-23)
(0.01101312 0.001628672 7.540632e-24)
(0.01094781 -6.235998e-05 2.947457e-25)
(0.01069136 -0.001153042 0)
(0.01152058 -0.0001447349 8.353692e-26)
(0.01133849 -0.000339948 1.286027e-24)
(0.009986957 0.0006341928 -1.416535e-23)
(0.008588832 0.0002723145 3.479886e-23)
(0.01046771 -0.001290644 -2.01262e-24)
(0.009880772 0.0005788985 -2.624859e-23)
(0.00989396 0.000682466 1.422694e-23)
(0.008520671 0.0005401479 -1.488272e-25)
(0.01018004 -0.0009746893 -1.40409e-23)
(0.01036521 0.0005134837 0)
(0.01033535 0.001474545 -1.53629e-23)
(0.009033234 0.001229426 -1.649954e-23)
(0.009092862 -0.001522703 4.557781e-24)
(0.01092805 -9.455965e-05 2.595552e-24)
(0.01108195 -0.0008942534 2.999879e-24)
(0.009706551 0.0001261064 3.426121e-23)
(0.01017768 0.001650867 1.579393e-23)
(0.007445568 0.002850806 0)
(0.01017485 0.0004312652 1.159738e-23)
(0.008603786 -0.001483976 -5.343789e-24)
(0.009854234 0.0008554579 1.420781e-25)
(0.009310619 0.001820438 3.044011e-23)
(0.00887358 -0.0002070476 4.739411e-23)
(0.0100312 0.0004680515 0)
(0.009822534 3.971716e-05 -2.653837e-23)
(0.009922595 0.0002246841 -1.819494e-23)
(0.01100785 -0.0001142788 -4.074339e-24)
(0.01099469 0.0008471944 0)
(0.01102492 0.0008623174 -4.289371e-24)
(0.0099237 0.000932553 0)
(0.01013684 0.0004556576 0)
(0.00871678 0.002773396 0)
(0.00985867 0.0004409253 0)
(0.009947394 0.001282002 1.464732e-23)
(0.009412197 -0.0002493306 -1.922655e-23)
(0.009545365 0.00040263 0)
(0.01010643 0.001010385 1.224684e-23)
(0.009372425 0.0005670094 0)
(0.00796508 0.002874589 1.310894e-23)
(0.01114332 -0.0005146116 0)
(0.01079792 0.0009631873 -7.33182e-24)
(0.009804827 0.000500601 0)
(0.008036952 -9.304904e-05 2.415394e-23)
(0.009811457 0.0006188991 -1.568154e-23)
(0.01155679 0.0001207143 0)
(0.01102721 8.18862e-05 -2.510198e-24)
(0.009023791 0.0004670404 -2.467726e-23)
(0.009985271 0.0002494904 0)
(0.010867 -0.0009068436 3.844095e-25)
(0.0105664 -0.001288901 0)
(0.01080459 0.00041106 -9.05881e-24)
(0.01064157 0.0005505918 -3.034583e-24)
(0.008712417 -0.0001625344 0)
(0.01106787 -0.0006085686 9.495642e-26)
(0.01131462 0.0008543924 6.185205e-25)
(0.01001709 0.0005259915 -2.613897e-23)
(0.01015134 -0.001445316 0)
(0.01061017 0.0006879821 0)
(0.009949168 8.98405e-05 2.503953e-23)
(0.009266415 0.0004915196 0)
(0.01030956 0.00220176 -4.682763e-25)
(0.010368 0.0006393367 -6.343881e-24)
(0.01112448 -0.0003465747 -3.731889e-24)
(0.01043636 0.0003529443 0)
(0.009462086 -0.0001446872 -1.845967e-23)
(0.01133918 0.001012847 -1.023391e-23)
(0.01022502 0.0006288251 -8.429468e-24)
(0.01074044 -0.0005368114 0)
(0.009875098 0.0009704801 -5.897724e-24)
(0.01016728 0.0006216449 0)
(0.01028839 0.001667119 0)
(0.01100669 0.0007594218 0)
(0.008058874 0.0009850718 2.199715e-23)
(0.01040433 -0.001023548 -1.896219e-23)
(0.01022633 0.0004830579 0)
(0.01104294 -7.01158e-05 -2.525834e-24)
(0.01115428 -0.0003836284 1.731903e-24)
(0.01052162 0.001540324 7.513588e-24)
(0.01104764 0.0004582959 -8.135307e-24)
(0.01020815 0.0003231196 0)
(0.01085976 0.001085684 -9.773847e-24)
(0.009497269 -1.690086e-05 1.807197e-23)
(0.00946604 0.000126168 -1.16823e-23)
(0.009618665 0.0002748111 -1.597218e-23)
(0.01008331 0.0004448919 -7.645387e-24)
(0.008808915 -0.0001107622 3.415814e-23)
(0.008019999 0.0001329827 1.273657e-23)
(0.01023176 0.0001875183 7.392325e-24)
(0.01145162 -0.0002920819 0)
(0.01107708 0.001473747 0)
(0.01112447 -0.0001880339 -5.586943e-24)
(0.01101447 -0.0004707594 1.117538e-24)
(0.01151562 0.0007361878 3.236104e-24)
(0.01004233 0.0007563363 -2.222839e-23)
(0.008984894 0.0002614242 -1.460451e-23)
(0.01132099 0.0004301258 0)
(0.01103174 0.0003419566 -1.369197e-24)
(0.01007112 0.0005412505 0)
(0.009710762 0.001897061 -8.443241e-24)
(0.009101552 0.002112628 -8.568838e-25)
(0.01034368 0.002199986 -1.82466e-23)
(0.009774684 0.002438617 -9.627655e-25)
(0.008882413 0.00159258 3.949371e-29)
(0.0101576 0.0008455306 8.204221e-24)
(0.00930858 0.002308774 5.955528e-24)
(0.009642372 0.00157476 8.038082e-24)
(0.01125498 0.000375107 3.543454e-24)
(0.01064149 0.0007835222 0)
(0.01017976 0.0008187859 1.934667e-23)
(0.01111271 0.0006878701 0)
(0.01030229 0.0008176575 0)
(0.01004545 0.001517583 0)
(0.01010557 0.0003116631 0)
(0.01145505 1.497112e-05 -1.506292e-24)
(0.01127305 0.0005501749 2.264833e-24)
(0.01002543 0.000666963 0)
(0.01011624 0.001892085 8.684182e-24)
(0.01094276 0.001114277 4.561701e-24)
(0.0103021 0.0005794536 5.890433e-24)
(0.01112427 -0.0006026522 -5.153189e-25)
(0.0113224 -0.0004424846 -1.016597e-24)
(0.01091409 -0.0009583637 -3.004594e-24)
(0.01019739 0.0003769369 0)
(0.01099393 -0.0007338691 -1.393175e-26)
(0.008241318 0.0002857909 5.206486e-23)
(0.009260362 0.0002398485 -4.639791e-23)
(0.009186818 0.0001613998 6.063181e-23)
(0.008915817 0.0006679166 1.98856e-23)
(0.008983622 0.0003108898 0)
(0.01054887 0.0006296313 0)
(0.00969075 0.0004786931 0)
(0.01060831 0.0008557582 0)
(0.009824848 0.0001800272 0)
(0.01121605 -0.0007438441 0)
(0.01014163 0.0006502989 2.230319e-23)
(0.009854212 -0.001446927 2.023986e-24)
(0.01010473 0.0005035529 0)
(0.01011232 0.0005834946 6.635435e-24)
(0.0100648 0.001954427 0)
(0.009870308 0.001025297 1.042878e-23)
(0.009862953 0.001204652 -3.581483e-23)
(0.009529797 0.001082416 0)
(0.0112817 0.001187775 -3.329518e-24)
(0.008728229 -0.001407473 6.221973e-24)
(0.01043944 0.0009339573 8.917346e-24)
(0.0102022 0.0004829112 -9.273974e-24)
(0.008441974 -0.001530978 3.55308e-24)
(0.008861209 0.0007873589 0)
(0.01100565 0.0004577425 0)
(0.01066587 -0.001231614 0)
(0.01001115 0.0002476712 1.843808e-23)
(0.01008337 0.0002577007 4.608467e-25)
(0.009937961 0.0008150926 0)
(0.009712558 0.00109315 0)
(0.01016733 0.000514695 1.133884e-23)
(0.01080005 0.0006189936 8.029022e-26)
(0.01019411 0.0007465775 0)
(0.01144029 0.0009407125 -5.044855e-24)
(0.01125171 -4.056074e-06 -6.242877e-24)
(0.01032637 0.0005152086 -1.002596e-23)
(0.009766962 -0.0004768604 0)
(0.007392317 0.002221587 0)
(0.007007103 0.002340356 -2.61903e-23)
(0.01057128 0.0009740476 -2.365604e-23)
(0.009133412 -0.001508461 3.74094e-24)
(0.01042529 0.001510256 -1.124052e-23)
(0.01003669 0.001793827 -7.109657e-24)
(0.01052962 0.00182634 -1.065081e-23)
(0.009404165 0.002013975 -6.97418e-24)
(0.01106387 -0.0002388863 -1.619028e-24)
(0.01045209 0.0007666878 5.013652e-24)
(0.01086095 0.0007920431 2.340396e-24)
(0.009492201 0.0008627117 -7.846324e-24)
(0.009662763 0.001155695 -2.022523e-23)
(0.01110478 0.001102576 0)
(0.00926167 0.001099514 1.613442e-23)
(0.009400602 0.0008437906 -3.300214e-23)
(0.01008619 0.0006182769 1.326603e-23)
(0.01005991 0.00055901 -7.097949e-24)
(0.01068059 -0.0009582063 0)
(0.01146425 -0.0003130439 0)
(0.007377915 0.001334835 6.006448e-23)
(0.01053426 0.0004374601 0)
(0.009951413 -0.0004798235 0)
(0.01102697 0.0001216962 -2.509875e-24)
(0.01058984 0.0006971509 0)
(0.01038341 2.699884e-05 -1.022176e-23)
(0.0109348 -0.0009836812 1.426089e-24)
(0.0107287 0.001660384 1.966018e-23)
(0.01147962 -2.372921e-05 -3.335082e-24)
(0.01089622 0.0002020686 9.257267e-24)
(0.01067577 0.0001936813 0)
(0.0102872 0.000985361 1.141248e-25)
(0.009735228 0.0003092585 -2.048917e-23)
(0.007747334 0.000840608 0)
(0.008557767 0.001040785 2.384128e-23)
(0.01042175 0.0006521342 -5.548878e-24)
(0.01009644 0.0003947505 1.294535e-23)
(0.01012504 0.000423781 -1.933123e-23)
(0.01124186 -0.0005063746 -9.250367e-25)
(0.01009239 0.0005169496 -1.073735e-23)
(0.01012095 0.0005600984 0)
(0.01084643 -0.000880162 3.795762e-24)
(0.01139751 0.0003469991 0)
(0.009644603 0.0003804494 -3.28872e-24)
(0.01000097 0.001368229 -1.797217e-23)
(0.01117804 -0.0007971901 0)
(0.01086862 1.989354e-05 0)
(0.01049348 -0.001325 0)
(0.008048479 0.0002260598 -2.536717e-23)
(0.01133201 0.001064014 1.060545e-23)
(0.008617228 0.0001964234 -3.142042e-23)
(0.01051616 0.000490926 -2.207904e-25)
(0.01073411 0.0006928769 -5.238089e-24)
(0.01048963 -0.001210706 1.006343e-24)
(0.01135723 0.0007567317 -6.259746e-25)
(0.01142369 -4.69649e-05 -3.171317e-24)
(0.009845372 0.0001453261 0)
(0.01013749 0.0008845301 -8.665143e-24)
(0.008737917 -0.001502298 8.301997e-26)
(0.008544166 -0.0015984 8.215541e-25)
(0.008983562 -0.001522993 -3.128218e-24)
(0.01068253 0.0005284124 -9.70996e-24)
(0.01097015 0.001316954 -7.597466e-24)
(0.01043274 0.0009627501 1.170658e-23)
(0.01054896 0.001886967 -1.298471e-23)
(0.01048125 0.001810906 -4.223625e-24)
(0.009497823 -0.001474442 0)
(0.009218961 -0.001642457 0)
(0.009870677 0.0006480544 -1.786435e-23)
(0.01134756 0.0006931499 0)
(0.01112239 0.001030029 0)
(0.009536543 -0.001592188 2.216732e-24)
(0.01120754 -0.0003879279 -5.867848e-25)
(0.01089302 0.0004609114 -1.512066e-23)
(0.009505932 -0.0001949528 0)
(0.01097789 -0.000704837 8.373115e-28)
(0.01006618 0.0003830055 1.147168e-23)
(0.01151628 0.0005258766 0)
(0.01155171 0.0004813238 2.441443e-24)
(0.01129691 0.0006672625 2.446941e-24)
(0.008454544 -0.001736379 -2.547861e-24)
(0.01109899 -0.0004484732 -1.233824e-24)
(0.01114 -0.0007818085 7.762986e-25)
(0.009958638 0.001628241 -1.501569e-24)
(0.01085323 -0.0001500768 -3.611324e-24)
(0.008388604 0.002664282 6.07331e-24)
(0.01002505 0.0002587268 4.46667e-24)
(0.01000028 3.02256e-05 2.121659e-23)
(0.009966326 0.0006082258 -2.443072e-23)
(0.01091634 -0.0003432518 1.959053e-24)
(0.01050293 0.001723707 8.707297e-25)
(0.008822678 0.002772243 -2.117104e-23)
(0.01119764 5.10826e-05 -7.094236e-24)
(0.01117427 4.405977e-05 8.427891e-24)
(0.01139883 0.0001813017 0)
(0.01130409 -0.000621232 -8.911308e-25)
(0.01135575 0.001159378 -3.703894e-24)
(0.01069631 0.001940119 -1.810163e-23)
(0.01148428 0.0007974701 9.86029e-25)
(0.01146905 0.0007327214 0)
(0.01098132 0.0005596623 0)
(0.01064572 0.001068988 0)
(0.01002522 0.0006825523 -1.800616e-23)
(0.01047751 0.0008956762 -8.671898e-24)
(0.01045384 0.0008152451 0)
(0.01080565 -0.0009385475 0)
(0.01122078 0.000817511 -5.703021e-24)
(0.008588284 0.002274072 0)
(0.009433046 -0.000176283 4.772939e-23)
(0.009698408 0.0005371324 -4.343482e-24)
(0.00922633 0.0005197041 0)
(0.0113774 0.0008178451 0)
(0.009168641 -0.001688205 -1.035838e-23)
(0.008201443 0.001892697 0)
(0.008272763 0.002793881 -1.43853e-23)
(0.0104488 0.001555071 1.116747e-23)
(0.01080965 -0.0002545095 -1.569843e-24)
(0.01086279 0.001000628 1.713943e-23)
(0.009290722 -0.0002890089 7.729478e-24)
(0.009283037 -2.738715e-05 -2.444418e-23)
(0.01126138 0.0002493079 -2.873056e-24)
(0.01128725 -0.000539214 -1.376148e-25)
(0.01104673 -0.0007109915 -2.351781e-26)
(0.009033379 -0.001418099 6.091347e-24)
(0.009364683 0.0002007398 0)
(0.009907061 0.0007350793 0)
(0.01019741 0.0007245462 0)
(0.01002726 0.0007202943 -8.937366e-24)
(0.009722107 0.0002697261 0)
(0.009773919 -0.001242864 7.028934e-24)
(0.01131254 0.0004349312 -1.479155e-24)
(0.01013673 0.000531183 -1.492164e-23)
(0.0111448 0.000384989 0)
(0.01098215 0.0003629159 -9.936553e-24)
(0.009395706 -0.001648358 0)
(0.01042592 0.0001542651 -1.24841e-23)
(0.01025676 0.002244169 0)
(0.01037638 -0.001260806 4.163323e-24)
(0.01102672 0.0004440297 0)
(0.01088213 -0.0002101258 -4.713104e-25)
(0.01065515 -0.00121338 -9.426251e-25)
(0.01092585 0.0002385829 5.924548e-24)
(0.007898936 -0.0001097675 0)
(0.0111845 0.0005257692 1.325078e-23)
(0.009049635 0.0006107673 -1.706969e-23)
(0.01069199 -5.965135e-06 -3.916956e-24)
(0.008039098 0.00132034 7.813988e-24)
(0.01150076 0.0003545968 0)
(0.01152197 -0.0001076378 -5.433344e-25)
(0.0089832 -0.001167948 5.285366e-24)
(0.01036762 0.0008651665 1.269487e-23)
(0.01094982 0.0007612277 0)
(0.009462655 0.0007804468 -3.031006e-23)
(0.01085311 -0.0007281913 8.433958e-24)
(0.01114574 -0.0003268922 1.808513e-24)
(0.01126455 -0.000219891 -1.657932e-24)
(0.009737006 0.000348496 -2.006533e-23)
(0.01012982 0.0007847007 5.653581e-25)
(0.01041024 0.0005331076 0)
(0.0115773 0.0003690376 1.155909e-24)
(0.01019641 0.0005242363 -6.156846e-24)
(0.01068947 0.0007202264 -2.778711e-24)
(0.01055912 0.0007537909 -1.277018e-23)
(0.01083471 0.0008218859 0)
(0.01002088 3.770845e-05 -1.863749e-24)
(0.009537773 -6.127652e-05 0)
(0.01080984 0.00127431 1.674744e-24)
(0.009854351 0.0006981853 -1.228629e-23)
(0.01087451 0.0006171046 -1.258383e-23)
(0.01056707 -0.00114183 1.642059e-24)
(0.01105119 -0.0006760572 3.620645e-25)
(0.009947241 0.0005280883 2.637315e-24)
(0.009903928 0.0001854405 3.059353e-23)
(0.009737325 0.0001136718 -1.544086e-23)
(0.01078874 0.0008573275 0)
(0.01035972 -0.001328 1.903571e-24)
(0.008732817 3.178164e-07 8.734581e-24)
(0.01108619 0.0003281813 7.870031e-24)
(0.009292932 0.000737756 1.313846e-23)
(0.01005151 0.0001052869 8.707457e-24)
(0.009709358 0.0006542382 1.115674e-23)
(0.009108938 0.0009750907 -1.141711e-23)
(0.009860904 0.0008035671 -4.628375e-24)
(0.008315187 -0.00142847 -5.341519e-24)
(0.008819879 0.002213376 -7.91088e-24)
(0.01000106 4.237722e-05 -1.362398e-23)
(0.009889533 0.0008924267 -3.904355e-24)
(0.01101186 0.001218013 2.353976e-24)
(0.01084607 -0.0009005901 0)
(0.009942231 0.0001931481 -1.505585e-23)
(0.0107406 0.001210474 5.620004e-24)
(0.01150937 -0.0001098292 1.249514e-24)
(0.008338723 0.002761564 5.419322e-23)
(0.0105533 0.0007153932 -1.526113e-23)
(0.005835767 0.0007585299 -4.365776e-24)
(0.009596918 0.0003615663 -1.708894e-23)
(0.009991529 0.0001906486 1.896162e-23)
(0.009669953 0.001433726 0)
(0.009322008 0.001327744 -9.021119e-24)
(0.009026064 0.001472438 -2.052643e-23)
(0.008906515 0.001329352 -2.088194e-23)