/*--------------------------------*- C++ -*----------------------------------*\
| =========                 |                                                 |
| \\      /  F ield         | OpenFOAM: The Open Source CFD Toolbox           |
|  \\    /   O peration     | Version:  2406                                  |
|   \\  /    A nd           | Website:  www.openfoam.com                      |
|    \\/     M anipulation  |                                                 |
\*---------------------------------------------------------------------------*/
FoamFile
{
    version     2.0;
    format      ascii;
    arch        "LSB;label=32;scalar=64";
    class       volScalarField;
    location    "1";
    object      p;
}
// * * * * * * * * * * * * * * * * * * * * * * * * * * * * * * * * * * * * * //

dimensions      [0 2 -2 0 0 0 0];

internalField   nonuniform List<scalar> 
217010
(
-106.7984
-59.47406
-69.502
-70.829
-65.20274
-61.12012
-61.38888
-60.57241
-60.34866
-60.48786
-60.92514
-60.98456
-60.71021
-60.67097
-61.03062
-61.3197
-61.53821
-61.84992
-62.20477
-62.77022
-63.96347
-64.48794
-63.85904
-61.74211
-61.9353
-64.26442
-62.29871
-60.37811
-62.5194
-67.37737
-67.25968
-62.13199
-61.70468
-64.14716
-65.90471
-67.08196
-66.83103
-64.2725
-59.75949
-54.39902
-48.94024
-43.93649
-41.48632
-40.65713
-41.04901
-43.07005
-46.37842
-48.87037
-50.56675
-48.2012
-50.1782
-54.16561
-62.22769
-69.00212
-80.53289
-94.35869
-93.46527
-73.15457
-58.08785
-63.82091
-75.03099
-87.48699
-96.76179
-96.96724
-91.44666
-89.68305
-91.70591
-93.53199
-94.80424
-96.10044
-97.46763
-98.7357
-99.81247
-100.6677
-101.2967
-101.7072
-101.9173
-101.924
-101.7431
-101.4069
-100.9174
-100.2761
-99.46579
-98.44081
-97.34541
-96.06964
-94.65795
-93.11987
-91.50801
-89.7259
-87.78847
-85.83355
-83.79102
-81.62767
-79.35088
-76.99644
-74.64215
-72.23594
-69.7584
-67.20688
-64.60615
-61.99959
-59.3968
-56.79591
-54.1319
-51.49276
-48.88693
-46.26849
-43.60457
-40.9388
-38.35653
-35.82708
-33.37116
-31.00944
-28.66682
-26.37685
-24.22436
-22.17036
-20.21707
-18.38047
-16.6723
-15.08465
-13.57026
-12.1508
-10.83301
-9.571779
-8.38793
-7.303107
-6.354374
-5.504742
-4.815629
-4.222342
-3.748744
-3.399492
-3.153094
-3.021866
-2.999886
-3.080985
-3.258252
-3.520348
-3.858585
-4.252428
-4.678755
-5.117654
-5.555543
-5.947824
-6.318094
-6.400897
-6.97475
-4.476401
-15.57934
-7.846938
-11.05557
-10.09977
-7.507924
-8.41917
-9.965063
-11.03677
-9.913948
-6.490659
-1.871916
2.406228
5.045467
5.525148
5.149193
4.078682
2.35576
0.2496039
-2.465918
-4.754719
-5.946306
-6.047807
-5.533335
-7.216831
-8.961502
-6.770165
-3.349814
-2.204579
-2.212703
-1.247101
-1.500444
-3.356127
-4.105693
-4.141927
-4.174936
-4.195083
-3.833042
-3.93243
-4.087909
-4.048013
-3.598176
-3.732891
-4.500396
-4.024172
-3.840098
-4.46139
-4.185976
-5.895028
-3.384062
-26.40818
2.535293
3.345933
6.90036
8.874734
10.77139
12.38702
13.84528
15.22754
16.43665
17.59342
18.67121
19.6836
20.65974
21.59945
22.49721
23.34736
24.16152
24.95771
25.73119
26.4821
27.21347
27.91856
28.59724
29.27373
29.94435
30.60724
31.24993
31.868
32.47191
33.07428
33.67746
34.27629
34.8514
35.41597
35.98328
36.54526
37.10685
37.66642
38.23263
38.77975
39.34607
39.88891
40.43191
40.97075
41.51181
42.04722
42.57684
43.11182
43.66052
44.21151
44.75331
45.28828
45.8246
46.38058
46.94791
47.50907
48.0735
48.64626
49.2201
49.80145
50.38472
50.96628
51.56955
52.21689
52.85226
53.44591
54.07704
54.77891
55.42072
55.3484
57.03341
36.09029
39.26639
40.01955
41.11405
41.20989
40.559
39.66397
38.79048
37.98943
37.21766
36.40928
35.57402
34.74822
33.9549
33.17786
32.39986
31.61257
30.82219
30.04905
29.28478
28.50815
27.7284
26.95774
26.17646
25.39913
24.61273
23.80011
22.9932
22.20206
21.40544
20.59416
19.73391
18.92714
18.0798
17.20769
16.33736
15.46584
14.56652
13.65359
12.7408
11.81048
10.83629
9.822231
8.811447
7.806425
6.767649
5.686273
4.577567
3.42407
2.230523
1.010167
-0.2460017
-1.515734
-2.859295
-4.279412
-5.74611
-7.288253
-8.891919
-10.6007
-12.43285
-14.36166
-16.40551
-18.65689
-21.09724
-23.86309
-26.8528
-30.23319
-34.31807
-38.81031
-46.61056
-50.91
38.56469
38.99089
39.89745
41.04348
41.22973
40.63667
39.75687
38.87845
38.06981
37.29452
36.4857
35.64809
34.81784
34.01972
33.23909
32.45847
31.66877
30.87535
30.09913
29.33225
28.55343
27.77136
26.99845
26.21494
25.43585
24.64781
23.83319
23.0243
22.23107
21.43268
20.61979
19.75683
18.95072
18.10039
17.22671
16.3549
15.48199
14.58114
13.6669
12.75269
11.82112
10.84525
9.829553
8.817418
7.811164
6.770662
5.68786
4.57788
3.422505
2.22682
1.004314
-0.2540769
-1.525254
-2.872451
-4.295783
-5.765455
-7.31173
-8.918727
-10.63317
-12.47144
-14.40538
-16.45583
-18.71513
-21.16411
-23.9521
-26.95511
-30.35958
-34.46966
-39.05495
-46.78864
-52.20765
1.826987
3.278239
6.786162
8.804361
10.70987
12.33683
13.79976
15.19425
16.4074
17.56652
18.64809
19.66304
20.64165
21.58393
22.48429
23.33664
24.15221
24.94995
25.72507
26.47737
27.21004
27.9166
28.59613
29.27347
29.945
30.60889
31.25267
31.87159
32.47635
33.07961
33.68374
34.28357
34.85965
35.42504
35.99339
36.55632
37.11902
37.67978
38.24794
38.79506
39.36303
39.907
40.45135
40.99147
41.53378
42.07049
42.60159
43.13837
43.68886
44.24138
44.78448
45.32113
45.8598
46.41827
46.98782
47.55101
48.11783
48.69311
49.26962
49.85356
50.43937
51.02487
51.63374
52.28488
52.92111
53.51859
54.15939
54.85978
55.45239
55.40014
56.37291
-15.16389
-8.167499
-10.93921
-10.28691
-7.603726
-8.298109
-9.890927
-11.13872
-10.20421
-6.844186
-2.194711
2.182796
4.955093
5.517105
5.174744
4.1341
2.434372
0.3414287
-2.375453
-4.69542
-5.943149
-6.057412
-5.514996
-7.181303
-8.995188
-6.840075
-3.390222
-2.213266
-2.218733
-1.244881
-1.489317
-3.357029
-4.113174
-4.144603
-4.175363
-4.197016
-3.835114
-3.934748
-4.089773
-4.044851
-3.595705
-3.741906
-4.506583
-4.023413
-3.848431
-4.472141
-4.215639
-5.890526
-3.94327
-23.19666
-49.82262
-53.56342
-61.28269
-67.91069
-79.19953
-93.64951
-94.36123
-75.11658
-58.48585
-63.30119
-74.17915
-86.59671
-96.30377
-97.08986
-91.6779
-89.66348
-91.55488
-93.41634
-94.71893
-96.02174
-97.39831
-98.68053
-99.77164
-100.6403
-101.2816
-101.7026
-101.9199
-101.9332
-101.7576
-101.4259
-100.9409
-100.305
-99.49856
-98.47234
-97.37763
-96.10419
-94.69386
-93.15454
-91.54297
-89.76153
-87.81927
-85.86125
-83.81714
-81.65168
-79.37163
-77.01189
-74.65411
-72.24448
-69.76292
-67.2082
-64.60364
-61.9935
-59.38641
-56.78234
-54.11401
-51.47056
-48.86071
-46.23802
-43.56992
-40.89984
-38.31415
-35.78179
-33.32279
-30.95808
-28.61261
-26.32236
-24.16506
-22.11111
-20.15766
-18.32142
-16.61388
-15.02633
-13.51205
-12.09314
-10.77537
-9.514633
-8.332339
-7.251553
-6.306425
-5.462103
-4.778894
-4.190706
-3.723571
-3.380762
-3.141159
-3.017688
-3.00245
-3.091839
-3.277451
-3.547851
-3.894125
-4.294493
-4.725528
-5.167764
-5.606126
-5.997736
-6.352586
-6.454781
-6.846583
-4.883473
-99.36154
-60.42389
-69.23623
-71.01821
-65.40338
-61.17051
-61.39361
-60.58384
-60.35015
-60.48535
-60.9234
-60.98683
-60.7114
-60.66951
-61.03017
-61.31993
-61.53829
-61.85132
-62.20741
-62.77729
-63.98124
-64.50385
-63.85275
-61.71739
-61.94861
-64.29171
-62.27649
-60.41081
-62.6441
-67.52324
-67.22151
-62.00228
-61.71689
-64.24515
-66.0023
-67.13207
-66.75688
-64.02992
-59.4235
-54.02616
-48.57753
-43.69286
-41.38555
-40.65546
-41.16165
-43.34403
-46.76053
-49.18524
-50.57022
-48.09449
-90.67024
-60.78729
-68.86785
-71.19507
-65.62892
-61.21954
-61.3939
-60.59486
-60.35372
-60.48595
-60.92823
-60.99482
-60.71619
-60.66714
-61.03085
-61.32202
-61.53924
-61.85525
-62.21297
-62.7886
-64.00776
-64.53952
-63.88956
-61.7257
-61.96835
-64.37397
-62.30419
-60.48939
-62.81454
-67.64429
-67.20206
-61.91037
-61.71544
-64.34743
-66.22971
-67.29826
-66.85949
-64.02575
-59.32784
-53.8659
-48.40573
-43.55638
-41.3361
-40.6807
-41.27467
-43.55972
-46.9646
-49.38678
-50.5708
-47.79223
-48.87927
-53.30132
-61.02722
-67.1676
-78.40935
-93.98631
-96.08538
-77.00281
-58.43946
-62.7601
-73.52484
-86.11487
-96.36127
-97.36427
-91.92092
-89.72209
-91.51815
-93.38313
-94.73452
-96.04985
-97.41615
-98.68737
-99.77049
-100.6352
-101.2772
-101.701
-101.9221
-101.9386
-101.7645
-101.4345
-100.952
-100.3192
-99.50382
-98.49367
-97.38561
-96.11623
-94.70767
-93.16456
-91.55177
-89.77539
-87.83135
-85.87306
-83.83024
-81.66475
-79.38556
-77.02303
-74.66511
-72.2552
-69.77226
-67.21581
-64.60853
-61.99693
-59.38663
-56.78324
-54.11181
-51.46583
-48.85507
-46.23116
-43.56118
-40.88658
-38.29973
-35.76672
-33.30509
-30.94048
-28.593
-26.29995
-24.1455
-22.08808
-20.13338
-18.29688
-16.58855
-15.00165
-13.48695
-12.0671
-10.7512
-9.488961
-8.306972
-7.226352
-6.283419
-5.441373
-4.759238
-4.174234
-3.7104
-3.371207
-3.134758
-3.016154
-3.006067
-3.100252
-3.289791
-3.563595
-3.912742
-4.314463
-4.745736
-5.187473
-5.623827
-6.011809
-6.358974
-6.456766
-6.832218
-5.077956
-14.29385
-8.406096
-10.9388
-10.44597
-7.623119
-8.263421
-9.956977
-11.29413
-10.28554
-7.015593
-2.415698
1.993521
4.865152
5.497418
5.186275
4.16004
2.473623
0.3899131
-2.352946
-4.711478
-5.98493
-6.122278
-5.554032
-7.185746
-9.041439
-6.915504
-3.444684
-2.234222
-2.233517
-1.23771
-1.49545
-3.382926
-4.132537
-4.152583
-4.17732
-4.202367
-3.841616
-3.940111
-4.093855
-4.04512
-3.592247
-3.758306
-4.528501
-4.033648
-3.861873
-4.48222
-4.211697
-5.896441
-4.173707
-19.01186
1.693142
3.218442
6.741222
8.772294
10.68328
12.31577
13.7837
15.1733
16.39741
17.5563
18.63938
19.65506
20.63398
21.57755
22.47893
23.33266
24.14781
24.94624
25.72201
26.47496
27.20793
27.91562
28.59485
29.27251
29.9447
30.60935
31.25413
31.8731
32.47777
33.08113
33.68559
34.28659
34.86315
35.42773
35.99665
36.55974
37.1236
37.68473
38.25179
38.80158
39.36713
39.91213
40.45724
40.99741
41.54025
42.07739
42.60843
43.14506
43.69662
44.25042
44.79361
45.33041
45.86862
46.4279
46.9994
47.56297
48.12983
48.70662
49.28351
49.8681
50.45498
51.04171
51.65093
52.30492
52.94319
53.54016
54.18631
54.88284
55.44018
55.38322
55.94195
39.66776
38.96836
39.82924
40.96999
41.22197
40.66222
39.7859
38.90229
38.09118
37.31774
36.50789
35.66854
34.83549
34.03637
33.25499
32.47438
31.68353
30.88812
30.11184
29.34516
28.56498
27.78236
27.00983
26.22459
25.4467
24.65837
23.84123
23.03198
22.23903
21.4404
20.62525
19.76537
18.95736
18.10863
17.23289
16.36055
15.48752
14.58491
13.67041
12.75678
11.82567
10.84809
9.830593
8.818466
7.812964
6.771218
5.68793
4.577661
3.420421
2.223536
0.9999473
-0.259246
-1.529319
-2.879076
-4.303936
-5.773682
-7.32275
-8.929307
-10.64747
-12.48819
-14.4232
-16.47559
-18.73804
-21.20531
-23.98661
-27.00065
-30.41706
-34.54561
-39.1605
-46.91317
-52.21597
40.97221
39.07447
39.78593
40.88479
41.19549
40.70041
39.85882
38.98352
38.17266
37.39971
36.58877
35.74797
34.91212
34.10975
33.32535
32.54159
31.74817
30.9493
30.17119
29.40125
28.61771
27.83288
27.05825
26.26965
25.49087
24.70024
23.879
23.06931
22.27428
21.47392
20.65579
19.79795
18.98195
18.13504
17.25562
16.3822
15.50825
14.60222
13.68694
12.77262
11.84083
10.85941
9.839116
8.826595
7.821342
6.776451
5.69194
4.580799
3.420124
2.221356
0.9957487
-0.2657091
-1.534646
-2.890321
-4.318746
-5.789574
-7.344884
-8.95186
-10.67805
-12.52507
-14.46375
-16.52139
-18.79621
-21.27196
-24.06044
-27.09499
-30.53462
-34.68223
-39.37673
-47.01679
-52.34978
1.503681
3.161374
6.635599
8.709426
10.62411
12.26871
13.74619
15.13879
16.36858
17.53049
18.61767
19.63531
20.6163
21.56302
22.46691
23.32374
24.13915
24.9396
25.71707
26.47155
27.20543
27.91554
28.59432
29.27275
29.9462
30.6122
31.25902
31.8787
32.48387
33.08759
33.69283
34.29594
34.87426
35.43832
36.0087
36.57248
37.13865
37.70114
38.26689
38.82407
39.38737
39.93356
40.48039
41.02207
41.56608
42.10526
42.63798
43.17631
43.72949
44.28535
44.83014
45.3692
45.90961
46.47067
47.04519
47.61094
48.17989
48.75919
49.33873
49.92547
50.51505
51.10594
51.71846
52.37425
53.01444
53.6145
54.26592
54.94863
55.44108
55.34714
55.34732
-13.14275
-8.594984
-10.94561
-10.65947
-7.753077
-8.345729
-10.23248
-11.5889
-10.70617
-7.423
-2.793974
1.701903
4.728862
5.458234
5.188492
4.183654
2.524032
0.4602051
-2.305302
-4.681946
-6.028066
-6.23865
-5.686476
-7.244814
-9.111864
-7.015238
-3.522593
-2.277472
-2.26859
-1.24298
-1.534951
-3.447695
-4.175682
-4.170639
-4.182133
-4.213383
-3.857023
-3.95261
-4.103521
-4.043504
-3.58743
-3.788157
-4.56247
-4.051055
-3.887289
-4.50676
-4.206924
-5.891305
-4.745138
-15.33412
-47.00275
-52.74164
-60.23769
-65.96931
-76.97537
-93.18889
-97.85336
-79.17255
-58.89804
-62.0268
-72.5796
-85.04983
-95.52821
-97.37918
-92.37233
-90.03982
-91.59969
-93.40407
-94.78741
-96.10265
-97.44644
-98.70097
-99.77529
-100.6375
-101.282
-101.7097
-101.9367
-101.9592
-101.7887
-101.4629
-100.9859
-100.362
-99.54857
-98.53385
-97.42957
-96.16381
-94.76006
-93.2088
-91.59449
-89.82021
-87.86427
-85.9023
-83.85862
-81.68923
-79.40829
-77.03762
-74.67719
-72.26575
-69.77979
-67.21975
-64.60673
-61.99202
-59.37502
-56.77235
-54.09496
-51.44278
-48.82819
-46.20114
-43.52851
-40.84625
-38.25666
-35.72302
-33.2564
-30.8903
-28.54172
-26.24576
-24.08678
-22.0317
-20.07695
-18.24051
-16.53174
-14.94676
-13.4326
-12.01105
-10.69609
-9.434091
-8.254537
-7.178945
-6.23866
-5.403391
-4.72503
-4.146089
-3.688463
-3.355762
-3.125381
-3.014893
-3.011877
-3.114132
-3.311848
-3.594148
-3.951901
-4.360413
-4.796996
-5.24299
-5.681298
-6.07082
-6.410206
-6.531555
-6.823512
-5.296395
-83.93862
-61.73142
-68.36577
-71.49847
-66.00476
-61.28071
-61.3939
-60.6118
-60.36032
-60.4892
-60.93542
-61.00825
-60.72642
-60.6639
-61.03251
-61.32628
-61.54186
-61.86366
-62.22363
-62.80817
-64.05633
-64.60158
-63.9834
-61.80551
-62.05012
-64.50586
-62.34921
-60.6224
-63.06323
-67.90514
-67.23099
-61.87455
-61.79878
-64.57167
-66.53894
-67.47923
-66.75326
-63.83081
-59.08373
-53.58325
-48.1528
-43.40525
-41.3015
-40.73624
-41.44857
-43.90408
-47.39759
-49.7657
-50.59125
-47.15497
-79.27255
-62.72761
-67.90093
-71.9929
-66.50849
-61.36187
-61.38358
-60.63427
-60.37135
-60.49656
-60.94629
-61.02679
-60.74232
-60.66222
-61.03535
-61.33357
-61.5476
-61.87987
-62.24287
-62.84115
-64.13898
-64.69037
-64.14737
-62.01038
-62.25417
-64.70351
-62.43137
-60.79887
-63.3629
-68.21095
-67.30403
-61.98268
-62.12961
-64.99946
-66.95228
-67.7382
-66.89072
-63.7735
-58.91297
-53.33882
-47.93655
-43.299
-41.31368
-40.8412
-41.68704
-44.35701
-47.9008
-50.16657
-50.52054
-46.16753
-44.55247
-51.82278
-59.43123
-64.68394
-75.27066
-92.41676
-99.45122
-81.948
-60.16591
-61.67429
-71.8453
-83.84743
-94.19992
-96.73659
-92.82769
-90.62566
-91.8056
-93.45452
-94.84117
-96.15208
-97.47334
-98.711
-99.77595
-100.6352
-101.2825
-101.7134
-101.9458
-101.9742
-101.8054
-101.4826
-101.0085
-100.3832
-99.56736
-98.57345
-97.45123
-96.18737
-94.79487
-93.23855
-91.62667
-89.86712
-87.8974
-85.93402
-83.89534
-81.72369
-79.44312
-77.06039
-74.69875
-72.28797
-69.79905
-67.23641
-64.61698
-62.00086
-59.3749
-56.77629
-54.0905
-51.43003
-48.81374
-46.18652
-43.5121
-40.81805
-38.22624
-35.69233
-33.21548
-30.85046
-28.50346
-26.20153
-24.04036
-21.98473
-20.02719
-18.19069
-16.48202
-14.89867
-13.38284
-11.95777
-10.64709
-9.383623
-8.204882
-7.130898
-6.196003
-5.365546
-4.69116
-4.118109
-3.667652
-3.341994
-3.117677
-3.016788
-3.021591
-3.133432
-3.339301
-3.629683
-3.995615
-4.40872
-4.847829
-5.294989
-5.731528
-6.116274
-6.44214
-6.557835
-6.807687
-5.5263
-11.80742
-8.633873
-10.99458
-10.97381
-7.958
-8.607729
-10.64331
-11.94407
-11.0416
-7.900662
-3.261126
1.32264
4.537836
5.384631
5.168273
4.194741
2.566585
0.517647
-2.293964
-4.702357
-6.120286
-6.419685
-5.929403
-7.353122
-9.1409
-7.112076
-3.616975
-2.347614
-2.33664
-1.285623
-1.633463
-3.57339
-4.256595
-4.205552
-4.193941
-4.236806
-3.887688
-3.979395
-4.121003
-4.039913
-3.582155
-3.835268
-4.606616
-4.078551
-3.933858
-4.520994
-4.200239
-5.88051
-5.312456
-12.69164
1.291758
3.14037
6.543653
8.654611
10.57077
12.22663
13.71098
15.1043
16.34617
17.50814
18.59888
19.61746
20.59915
21.54851
22.4549
23.31571
24.12977
24.93158
25.7104
26.46631
27.20087
27.91432
28.59152
29.27049
29.94484
30.61193
31.26133
31.88108
32.48561
33.08957
33.6957
34.30152
34.88106
35.44309
36.0153
36.57924
37.1477
37.71021
38.27425
38.83226
39.39775
39.94469
40.49281
41.03457
41.57965
42.12025
42.65321
43.19132
43.74652
44.30526
44.85047
45.39038
45.93083
46.49383
47.07275
47.6393
48.20872
48.7921
49.37321
49.96155
50.55371
51.14843
51.76278
52.42356
53.06739
53.6657
54.32236
54.99297
55.4164
55.25901
54.70445
42.59901
39.47242
39.86085
40.82407
41.15801
40.72941
39.91852
39.04188
38.2263
37.4563
36.64336
35.79941
34.95674
34.15076
33.36409
32.57964
31.78353
30.97943
30.20141
29.43136
28.64477
27.85852
27.08448
26.29127
25.51519
24.72377
23.89645
23.08649
22.29082
21.49039
20.66942
19.81195
18.9939
18.15016
17.26629
16.39247
15.51846
14.60866
13.69413
12.78117
11.85012
10.86359
9.839653
8.828679
7.825589
6.776572
5.691606
4.5808
3.415591
2.214915
0.9875123
-0.2756718
-1.54008
-2.904229
-4.336433
-5.806835
-7.368858
-8.97221
-10.70839
-12.56108
-14.5002
-16.55977
-18.84511
-21.34034
-24.12924
-27.1813
-30.64158
-34.80668
-39.56252
-47.03731
-52.45617
44.22116
40.18926
40.04618
40.78719
41.10688
40.74692
39.97934
39.11381
38.30485
37.54541
36.73094
35.88847
35.04362
34.23609
33.44582
32.66063
31.86276
31.05137
30.27233
29.4993
28.70744
27.91905
27.14504
26.34458
25.57145
24.77873
23.94281
23.13394
22.33625
21.5342
20.70616
19.85561
19.03121
18.18798
17.29816
16.42412
15.54742
14.6284
13.71285
12.80165
11.87463
10.88052
9.847521
8.837094
7.839791
6.784289
5.69763
4.588733
3.416999
2.212365
0.9796801
-0.2872533
-1.540343
-2.915628
-4.352305
-5.824793
-7.398096
-8.992581
-10.74474
-12.60636
-14.54831
-16.60642
-18.90629
-21.42446
-24.21506
-27.28576
-30.77103
-34.94791
-39.75536
-47.01353
-52.61723
1.020731
3.127139
6.441705
8.592044
10.50214
12.17262
13.66488
15.06216
16.31612
17.47669
18.57413
19.59487
20.57658
21.53092
22.44223
23.30821
24.11765
24.92143
25.70298
26.46209
27.19782
27.91576
28.59011
29.27026
29.94568
30.61603
31.27
31.88843
32.4928
33.09928
33.70642
34.31429
34.89581
35.45528
36.03078
36.59444
37.16609
37.72889
38.29518
38.86422
39.42406
39.97069
40.52146
41.06482
41.61228
42.15495
42.68802
43.22788
43.78741
44.35031
44.89489
45.43678
45.97794
46.54288
47.12737
47.69494
48.26621
48.8533
49.4342
50.02391
50.61915
51.21825
51.83027
52.49118
53.14017
53.73772
54.39456
55.0301
55.35187
55.06523
53.9686
-10.40698
-8.53148
-11.10558
-11.4091
-8.345874
-9.116623
-11.23929
-12.49131
-11.62705
-8.540969
-3.871764
0.7957242
4.281822
5.254455
5.097795
4.179606
2.607958
0.5669152
-2.33111
-4.767662
-6.246764
-6.670132
-6.279036
-7.481113
-9.057038
-7.108976
-3.691386
-2.438589
-2.4464
-1.4033
-1.830813
-3.784363
-4.390548
-4.263714
-4.226321
-4.276988
-3.935574
-4.026311
-4.152738
-4.03946
-3.580593
-3.902049
-4.65758
-4.122189
-4.00628
-4.601319
-4.223445
-5.881552
-5.713637
-10.74256
-42.20932
-50.36491
-58.04833
-63.15446
-73.30238
-90.91276
-100.7076
-85.2354
-62.91891
-62.20747
-71.37509
-82.48318
-92.30087
-95.46961
-93.00095
-91.24012
-92.07191
-93.53153
-94.90606
-96.2124
-97.51352
-98.7358
-99.79168
-100.6471
-101.2988
-101.7343
-101.9745
-102.0125
-101.8479
-101.5316
-101.0723
-100.4577
-99.63305
-98.63899
-97.5182
-96.24879
-94.86332
-93.28962
-91.67882
-89.93881
-87.93987
-85.97581
-83.94471
-81.76471
-79.48294
-77.08161
-74.72379
-72.3145
-69.81952
-67.25599
-64.62494
-62.00705
-59.36441
-56.77299
-54.07471
-51.40533
-48.79442
-46.16582
-43.48397
-40.77164
-38.17923
-35.64389
-33.15621
-30.80607
-28.45949
-26.14051
-23.9807
-21.92712
-19.96469
-18.13429
-16.4238
-14.83828
-13.32142
-11.89515
-10.5924
-9.323786
-8.143465
-7.074273
-6.149836
-5.321603
-4.653013
-4.086208
-3.645223
-3.328616
-3.110351
-3.021943
-3.03547
-3.159524
-3.37523
-3.675067
-4.052028
-4.472199
-4.916145
-5.367753
-5.806372
-6.190592
-6.511185
-6.648141
-6.840411
-5.759703
-75.29118
-63.44752
-67.65418
-72.69661
-67.13526
-61.45911
-61.37081
-60.66907
-60.38761
-60.50639
-60.95703
-61.04636
-60.76434
-60.66899
-61.04027
-61.34643
-61.56042
-61.90987
-62.27952
-62.89735
-64.26568
-64.84419
-64.40501
-62.39384
-62.61921
-64.94248
-62.53911
-60.98359
-63.70068
-68.56969
-67.42801
-62.34512
-62.82685
-65.61001
-67.45439
-67.99921
-66.97468
-63.73149
-58.75992
-53.11503
-47.76813
-43.24507
-41.39568
-41.02293
-42.01363
-44.9493
-48.56827
-50.66416
-50.35198
-44.96075
-71.42087
-63.79524
-67.84733
-73.44475
-68.16072
-61.49659
-61.37341
-60.73942
-60.41296
-60.51455
-60.96432
-61.05439
-60.79606
-60.69633
-61.0531
-61.3806
-61.59015
-61.96747
-62.35098
-62.99743
-64.42807
-65.03172
-64.77262
-62.99028
-63.14114
-65.12124
-62.55838
-61.10991
-64.0708
-68.93807
-67.58918
-63.03916
-63.87662
-66.39197
-68.1389
-68.45243
-67.20151
-63.74217
-58.68269
-52.97981
-47.70633
-43.25618
-41.56989
-41.32953
-42.5285
-45.77901
-49.40061
-51.2334
-50.14908
-43.84349
-40.80676
-48.66315
-56.41866
-61.68217
-71.11654
-88.69227
-100.9714
-88.83527
-67.15652
-64.1092
-71.4496
-81.33641
-90.53129
-94.05884
-92.94188
-91.75586
-92.36736
-93.65068
-94.99972
-96.29293
-97.57016
-98.77522
-99.81771
-100.663
-101.319
-101.7574
-102.0037
-102.0511
-101.8851
-101.5553
-101.1029
-100.5197
-99.6909
-98.69819
-97.57539
-96.30275
-94.93741
-93.3518
-91.74628
-90.0204
-87.98546
-86.03148
-84.00234
-81.80856
-79.53215
-77.11971
-74.77298
-72.35252
-69.8544
-67.29496
-64.63704
-62.02321
-59.35433
-56.78432
-54.07503
-51.40237
-48.79656
-46.14216
-43.45288
-40.7293
-38.13573
-35.59377
-33.12042
-30.77675
-28.40449
-26.06608
-23.9241
-21.85347
-19.89844
-18.07594
-16.34435
-14.7655
-13.25827
-11.82958
-10.52251
-9.247449
-8.069184
-7.020323
-6.087586
-5.270171
-4.609268
-4.053068
-3.618747
-3.314582
-3.104205
-3.03317
-3.056165
-3.194792
-3.426155
-3.738393
-4.126302
-4.554627
-5.002705
-5.456036
-5.89487
-6.275682
-6.585671
-6.719624
-6.891505
-5.988102
-9.045617
-8.139675
-11.27982
-11.96447
-9.091023
-9.943883
-12.05867
-13.22876
-12.41439
-9.448388
-4.799434
-0.09843446
3.906438
5.056528
4.942697
4.072915
2.637303
0.65026
-2.40467
-4.899002
-6.470594
-7.016569
-6.736749
-7.606862
-8.764418
-6.890895
-3.683391
-2.574336
-2.61424
-1.645692
-2.184984
-4.096556
-4.576227
-4.355626
-4.303499
-4.343869
-3.983727
-4.088542
-4.188755
-4.04136
-3.589627
-3.989794
-4.709032
-4.187887
-4.083518
-4.564866
-4.192551
-5.900981
-5.897381
-9.111288
0.7333736
3.152975
6.353107
8.53869
10.42357
12.11844
13.62223
15.02104
16.27917
17.43959
18.55242
19.57026
20.54881
21.51419
22.42879
23.29416
24.09652
24.90991
25.69632
26.46036
27.19338
27.91341
28.58626
29.26636
29.94296
30.62172
31.2736
31.88892
32.49783
33.10453
33.70504
34.31494
34.9069
35.46111
36.04029
36.60231
37.17929
37.74378
38.31071
38.87494
39.43589
39.98505
40.54134
41.08563
41.63244
42.17489
42.71223
43.25524
43.81391
44.37616
44.9217
45.4692
46.01136
46.57749
47.16833
47.74078
48.31053
48.89972
49.48413
50.08008
50.67977
51.28502
51.89184
52.55754
53.22394
53.81646
54.45865
55.02673
55.20506
54.65981
53.13595
45.68925
41.21664
40.36151
40.78775
41.04877
40.75457
40.03751
39.18485
38.38453
37.63806
36.80936
35.95849
35.10705
34.30433
33.50829
32.71693
31.91746
31.10221
30.3292
29.55153
28.75124
27.96188
27.18849
26.37692
25.61145
24.8095
23.96437
23.15936
22.36249
21.56537
20.72758
19.86511
19.04336
18.20166
17.30608
16.44354
15.57195
14.64332
13.72529
12.80814
11.88717
10.89425
9.853802
8.833684
7.844361
6.787099
5.694669
4.587823
3.415108
2.210938
0.9706038
-0.3136175
-1.552025
-2.939856
-4.367421
-5.842696
-7.439182
-9.012163
-10.78622
-12.64755
-14.60342
-16.66076
-18.96986
-21.50536
-24.29813
-27.38806
-30.90021
-35.07795
-39.90898
-46.87335
-52.70669
46.91735
42.76984
41.11859
41.01377
41.07153
40.79617
40.12289
39.27086
38.49375
37.79737
36.97709
36.10657
35.21466
34.41988
33.64394
32.84276
32.01216
31.17448
30.42578
29.65109
28.833
28.04806
27.28402
26.44044
25.72887
24.89904
24.02088
23.23321
22.4064
21.63455
20.78629
19.95508
19.13253
18.26539
17.32031
16.46242
15.59746
14.67391
13.77615
12.85199
11.89106
10.89625
9.893292
8.865363
7.847167
6.806247
5.716191
4.571852
3.401216
2.212221
0.9986929
-0.3001145
-1.557774
-2.998187
-4.395377
-5.843736
-7.5019
-9.037933
-10.87223
-12.68245
-14.64417
-16.77389
-19.09278
-21.6376
-24.43065
-27.54488
-31.1052
-35.29202
-40.15092
-46.69192
-52.73873
0.4594286
3.136593
6.20273
8.440941
10.29008
12.06475
13.55898
14.94457
16.20838
17.40534
18.53621
19.52538
20.51287
21.49926
22.39662
23.26176
24.0884
24.91768
25.69173
26.45587
27.17165
27.89972
28.59431
29.25249
29.94745
30.63237
31.25788
31.90271
32.51776
33.10578
33.69978
34.34433
34.95793
35.47529
36.06453
36.62344
37.21216
37.77454
38.33576
38.89543
39.4776
40.03571
40.58794
41.1289
41.66744
42.22807
42.77685
43.3034
43.84981
44.43985
45.00558
45.54478
46.08469
46.63969
47.25171
47.8378
48.37639
48.99187
49.59534
50.17915
50.7752
51.3821
51.97835
52.66372
53.35789
53.9022
54.48444
54.94135
54.95289
54.16567
52.36968
-7.719546
-5.928746
-11.03268
-12.42773
-10.21835
-11.04868
-13.19273
-14.26184
-13.5451
-10.80928
-6.295508
-1.476932
3.135346
4.774902
4.691876
3.776062
2.558692
0.774306
-2.508274
-5.107329
-6.805559
-7.467425
-7.307171
-7.7701
-8.32702
-6.421737
-3.519396
-2.770431
-2.911862
-2.035047
-2.695645
-4.476869
-4.835824
-4.538893
-4.433879
-4.480985
-4.025578
-4.203444
-4.292987
-4.055557
-3.615044
-4.100117
-4.860064
-4.218611
-4.22914
-4.840038
-3.897727
-5.651775
-5.684649
-7.669825
-40.3244
-46.97948
-54.78127
-60.10612
-68.32521
-84.70808
-99.30286
-91.70232
-72.09942
-66.88488
-71.83222
-80.1679
-88.58692
-92.71068
-92.75292
-92.14097
-92.69706
-93.81216
-95.11067
-96.37839
-97.6328
-98.82325
-99.85045
-100.6878
-101.3603
-101.8011
-102.0554
-102.1184
-101.9624
-101.6587
-101.1985
-100.6161
-99.77856
-98.80244
-97.68219
-96.40991
-95.04449
-93.48821
-91.82315
-90.09073
-88.11685
-86.11645
-84.07288
-81.89968
-79.64343
-77.2458
-74.83482
-72.37711
-69.91488
-67.35187
-64.63986
-62.07345
-59.35502
-56.84494
-54.10167
-51.42138
-48.74077
-46.04678
-43.41893
-40.73057
-38.07748
-35.56323
-33.12594
-30.66681
-28.2448
-25.98436
-23.83969
-21.73562
-19.83669
-17.98372
-16.19359
-14.67685
-13.20217
-11.74101
-10.39145
-9.133766
-7.981521
-6.973515
-5.983703
-5.214115
-4.560169
-4.024641
-3.589315
-3.301278
-3.112428
-3.061254
-3.097069
-3.255686
-3.505804
-3.84715
-4.24587
-4.679505
-5.140437
-5.595051
-6.032354
-6.409894
-6.706954
-6.838976
-6.979958
-6.243306
-67.95818
-63.53027
-68.59327
-74.49998
-69.8732
-61.21012
-61.12717
-60.81071
-60.44382
-60.51133
-60.9823
-61.0345
-60.83902
-60.75688
-61.11123
-61.4624
-61.65781
-62.09732
-62.48368
-63.17409
-64.62339
-65.22592
-65.17866
-63.77491
-63.71371
-64.84131
-62.21635
-61.00117
-64.20454
-68.75922
-67.62811
-64.08038
-65.22795
-67.36695
-69.03205
-68.91761
-67.40844
-63.81704
-58.80745
-53.03576
-47.79994
-43.51215
-41.90578
-41.79942
-43.47059
-47.1679
-50.55012
-51.80933
-49.89492
-43.0813
-0.007161514
-0.00235343
-6.346283
2.977064
1.046557
-0.09337356
0.03298853
1.92007
1.286549
0.06205542
2.04244
1.081417
-0.006394966
23.97425
0.08034219
3.011752
9.369581
-20.99197
4.68733
9.035059
-1.110732
4.886717
0.0342731
4.221044
-0.01691817
3.724805
4.252314
-0.2261351
2.102985
-0.207274
7.981744
-0.4816813
-123.3966
-0.1311673
5.796444
0.08157455
0.03837663
6.819043
-0.01273566
4.582465
7.756292
-0.001885809
0.6020485
0.9756307
0.4568719
8.740547
-0.02299426
-0.002334247
0.002189099
8.648005
-4.873062
0.02174953
-0.9260829
0.04510056
4.911592
0.04436285
-2.355652
5.192724
-8.759868
-0.003483398
0.1968404
5.094924
-0.0570329
0.2529616
9.037819
0.08476154
-0.05123919
3.711215
8.464079
-1.552123
1.069846
-0.0314668
6.316336
-0.3361324
3.703487
4.662744
2.858656
2.686871
0.0005637806
6.156385
0.4664796
3.366791
0.4165514
-0.05522012
0.3060518
0.09928654
8.386229
0.03504947
-0.2462288
-0.8787287
5.482461
6.367436
3.713912
0.1371342
0.3559664
-2.733712
3.732743
4.686999
-167.1276
0.5358158
-0.07568934
14.22757
15.21398
0.3385255
-4.778999
2.716993
-0.03036988
4.926834
-0.209324
2.11941
0.03815661
-184.9529
0.0308306
-1.60804
-4.57037
0.01762637
-0.07411357
3.983428
-10.18382
-1.183976
-0.2508857
-1.887405
-0.195027
0.1119234
1.951689
-0.41922
0.004236378
0.1132304
0.9762026
-0.009310131
12.82879
7.498454
2.894295
-0.6421399
0.08363151
-0.06852214
-4.060045
-132.9529
-23.94085
6.990786
3.001542
8.864988
2.937508
-3.274462
-0.122607
0.4119885
5.999959
-0.5689358
0.04362511
-4.682887
1.115949
0.2003059
-0.2087627
2.341847
18.31386
1.759906
0.08032565
-1.048359
0.005412444
0.7528543
1.61544
2.378468
-2.88759
0.01293149
6.885665
-0.1327995
-0.1742987
5.379614
-0.4485746
-0.3931435
0.1815956
0.3922688
0.03048643
-8.933234
-0.2383298
0.003250384
-0.2551696
-0.2352941
-0.0782183
4.835434
-0.02521992
3.515246
-11.83411
-1.561939
-0.3089996
-5.853601
4.85666
4.473533
6.013705
-0.2677238
-3.686186
0.0451568
3.972271
0.07070593
14.99027
-0.2345946
-1.124082
0.5565411
-16.06763
-0.2070994
3.129495
-0.9873658
-0.1321472
13.32892
-0.7919059
-1.863155
0.02547435
-8.011008
-8.418612
-0.3610273
0.02935187
0.6349076
0.03856605
4.533336
0.04077936
0.0124143
-2.631161
-0.1407529
0.6740267
1.647239
-9.169835
-5.895575
2.064714
0.1703063
26.36605
3.600617
3.529915
0.04326243
-5.076128
-16.0664
0.1039876
1.179966
-20.177
4.753309
1.397687
3.226948
1.357763
4.36067
6.674222
0.1209644
-4.592153
0.3631282
0.06222568
-0.2160999
0.242659
1.995755
-2.108946
-2.960095
3.433491
4.278952
4.259083
-173.3077
8.305843
-0.2732989
0.04350459
29.0796
-0.6387957
0.4898495
-1.215327
-0.8999642
0.9040448
0.4240449
-0.6889849
1.013858
5.585573
2.101715
0.1409744
1.123678
2.354336
0.4124769
-1.431565
0.06174541
-0.1463788
0.05421629
6.994534
8.843448
4.602821
0.1281542
1.5502
0.09345572
-1.511166
-42.42581
2.687222
-0.6373492
6.757958
0.08948805
-4.689207
5.947031
6.991711
2.046018
1.472696
0.04547884
-110.6654
4.772218
5.555121
6.636244
-0.0253051
18.96535
4.35843
-3.130081
-0.4569392
5.438543
-1.651096
10.5817
-2.233077
-0.07711478
-3.959726
4.691366