/*--------------------------------*- C++ -*----------------------------------*\
| =========                 |                                                 |
| \\      /  F ield         | OpenFOAM: The Open Source CFD Toolbox           |
|  \\    /   O peration     | Version:  2406                                  |
|   \\  /    A nd           | Website:  www.openfoam.com                      |
|    \\/     M anipulation  |                                                 |
\*---------------------------------------------------------------------------*/
FoamFile
{
    version     2.0;
    format      ascii;
    arch        "LSB;label=32;scalar=64";
    class       surfaceScalarField;
    location    "1";
    object      phi;
}
// * * * * * * * * * * * * * * * * * * * * * * * * * * * * * * * * * * * * * //

dimensions      [0 3 -1 0 0 0 0];

oriented        oriented;

internalField   nonuniform List<scalar> 
326221
(
-0.002082793
-0.004624177
0.006706971
-0.0008893424
-0.001193451
9.948198e-05
-0.0009888244
-0.00141802
0.001517502
-0.001121313
-0.000296707
-0.0003339455
-0.0007873676
-0.0003157738
-1.817174e-05
-0.0001793549
-0.0001364189
5.015961e-05
-0.0002295145
0.0002199332
-0.0001697736
0.0002364252
-1.649202e-05
7.166808e-05
0.0001647571
-0.0001206976
0.0001923657
-0.0001281508
7.453166e-06
-4.660715e-05
-8.154362e-05
3.593773e-05
-8.254489e-05
0.0001203245
-8.438681e-05
0.0002427739
-0.0001224493
0.0004571441
-0.0002143702
0.0007509519
-0.0002938079
0.0008709292
-0.0001199773
0.0006497927
0.0002211364
8.258175e-05
0.000567211
-0.0001829675
0.0002655493
-0.0003780654
0.0001950978
-0.001045716
0.0006676502
-0.000913728
-0.0001319875
4.393872e-05
-0.0009576667
0.0009569538
-0.0009130151
0.0009606832
-3.729352e-06
0.000176027
0.0007846562
-0.0001119057
0.0002879326
0.0001525209
-0.0002644266
-0.0003101234
0.0004626443
-0.00151846
0.001208336
-0.002379068
0.0008606084
-0.002655056
0.0002759882
-0.002523535
-0.0001315218
-0.002152205
-0.0003713292
-0.001642288
-0.0005099169
-0.001085542
-0.0005567468
-0.000322393
-0.0007631487
0.0003116977
-0.0006340907
0.0008489464
-0.0005372486
0.001421899
-0.0005729531
0.00196235
-0.0005404502
0.002043957
-8.16074e-05
0.0013624
0.0006815572
0.0002045197
0.00115788
0.0003908825
-0.0001863627
0.001427716
-0.001036833
0.002361365
-0.0009336499
0.002304835
5.653026e-05
0.002680032
-0.0003751969
0.003424067
-0.000744035
0.003086988
0.0003370794
0.0005853022
0.002501685
-0.001732072
0.002317374
-0.000816393
-0.0009156785
0.000890888
-0.001707281
0.002021172
-0.001130284
0.002561256
-0.0005400836
0.002011026
0.0005502299
0.0009435322
0.001067494
0.0004942557
0.0004492764
0.0006305356
-0.0001362799
0.0005682802
6.225537e-05
0.0001890363
0.0003792439
-0.0003457465
0.0005347828
-0.0008590111
0.0005132646
-0.001297973
0.0004389618
-0.001654601
0.0003566276
-0.001941336
0.0002867355
-0.002176531
0.0002351946
-0.002374466
0.0001979352
-0.002543808
0.0001693416
-0.002691668
0.0001478608
-0.002821343
0.0001296744
-0.002935684
0.0001143416
-0.003038406
0.0001027222
-0.003129664
9.125804e-05
-0.003205098
7.54335e-05
-0.003259441
5.434342e-05
-0.003223104
-3.633696e-05
-0.003266631
4.352646e-05
-0.003316845
5.021426e-05
-0.003357865
4.101933e-05
-0.003386005
2.814044e-05
-0.003410186
2.418107e-05
-0.003424846
1.466025e-05
-0.003423679
-1.167376e-06
-0.003421832
-1.846688e-06
-0.003415578
-6.254059e-06
-0.003400967
-1.461124e-05
-0.003379258
-2.170935e-05
-0.003349833
-2.942425e-05
-0.003319944
-2.988936e-05
-0.0032846
-3.534353e-05
-0.003240859
-4.374178e-05
-0.003188135
-5.272407e-05
-0.003126953
-6.118178e-05
-0.003060632
-6.632091e-05
-0.002988642
-7.19895e-05
-0.002915318
-7.33244e-05
-0.002832264
-8.305416e-05
-0.00274763
-8.463337e-05
-0.002663714
-8.39161e-05
-0.002577077
-8.663765e-05
-0.002484296
-9.278044e-05
-0.002384376
-9.992066e-05
-0.002286957
-9.741838e-05
-0.00218679
-0.0001001674
-0.002080643
-0.0001061473
-0.001975574
-0.000105069
-0.001863324
-0.0001122494
-0.00174442
-0.0001189038
-0.001662144
-8.227606e-05
-0.001538286
-0.0001238584
-0.001409263
-0.0001290228
-0.001278346
-0.0001309173
-0.001149021
-0.0001293244
-0.001028705
-0.0001203169
-0.0009097207
-0.0001189838
-0.0007946289
-0.0001150919
-0.0006944014
-0.0001002275
-0.0005862314
-0.00010817
-0.0004796015
-0.0001066299
-0.000353934
-0.0001256675
-0.0002428648
-0.0001110691
-0.0001205713
-0.0001222935
-6.33065e-06
-0.0001142407
0.0001080035
-0.0001143342
0.0002224487
-0.0001144451
0.000329873
-0.0001074244
0.0004414285
-0.0001115555
0.0005501317
-0.0001087032
0.0006571423
-0.0001070107
0.0007609884
-0.000103846
0.0008601509
-9.916252e-05
0.0009553912
-9.524036e-05
0.001043106
-8.771461e-05
0.00112124
-7.813376e-05
0.001189425
-6.818524e-05
0.001246986
-5.756141e-05
0.001290015
-4.302895e-05
0.00131645
-2.643513e-05
0.00129993
1.652044e-05
0.001261867
3.806283e-05
0.0009926382
0.0002692288
0.0007235179
0.0002691203
-0.0009984795
0.001721997
-2.643849e-05
-0.000972041
0.0005363506
-0.0005627891
0.0001586802
0.0003776704
0.0003092497
-0.0001505695
-6.104315e-05
0.0003702929
-0.001299876
0.001238833
-0.002349564
0.001049687
-0.002577178
0.0002276142
-0.002300736
-0.0002764414
-0.001825722
-0.0004750147
-0.001256975
-0.0005687468
-0.0006687292
-0.0005882457
-0.0002519894
-0.0004167398
0.0001264643
-0.0003784537
0.0005170489
-0.0003905845
0.0008350053
-0.0003179564
0.001198826
-0.0003638209
0.001438606
-0.0002397795
0.001425042
1.356352e-05
0.0009905627
0.0004344795
0.0004066159
0.0005839468
-3.442509e-05
0.000441041
-0.0004911267
0.0004567016
-0.0007949239
0.0003037971
-0.0004476718
-0.0003472521
0.0001563288
-0.0006040006
0.0004181236
-0.0002617948
0.0003155421
0.0001025815
0.0003047576
1.078454e-05
2.772478e-05
0.0002770328
-0.0003577609
0.0003854856
-0.0004239053
6.614445e-05
-0.0002792872
-0.0001446181
-0.0002037477
-7.55395e-05
-9.796875e-05
-0.000105779
0.0001397736
-0.0002377423
0.0002329173
-9.31437e-05
0.0001715124
6.140486e-05
0.0001651475
6.364923e-06
0.0002008971
-3.574962e-05
-5.365742e-05
0.0002545545
-0.0002866747
0.0002330173
-1.066555e-05
-0.0002760091
0.0002401432
-0.0002508087
3.63322e-05
0.000203811
-0.0001986226
0.0002349548
0.000889721
-0.001088344
0.001536893
-0.0006471716
-0.002856505
0.004393398
-0.003069509
0.0002130042
-0.00276935
-0.0003001599
-0.00262348
-0.0001458692
-0.002488494
-0.0001349861
-0.002384018
-0.0001044767
-0.002287747
-9.62702e-05
-0.002203725
-8.402197e-05
-0.00206704
-0.0001366858
-0.002007769
-5.927053e-05
-0.001962788
-4.498076e-05
-0.001921493
-4.129534e-05
-0.001885745
-3.574809e-05
-0.001850217
-3.552751e-05
-0.00181575
-3.446758e-05
-0.001782313
-3.343678e-05
-0.001753191
-2.912237e-05
-0.001726582
-2.660815e-05
-0.001700521
-2.606101e-05
-0.001673911
-2.661066e-05
-0.001649273
-2.463731e-05
-0.001625094
-2.417899e-05
-0.001602723
-2.237126e-05
-0.001583698
-1.902483e-05
-0.001563097
-2.06011e-05
-0.001541181
-2.191621e-05
-0.001517907
-2.327358e-05
-0.001496389
-2.15182e-05
-0.001477633
-1.875627e-05
-0.001461368
-1.626546e-05
-0.001443299
-1.806839e-05
-0.001424467
-1.883177e-05
-0.001402962
-2.150532e-05
-0.001385054
-1.79082e-05
-0.001369195
-1.585834e-05
-0.001351282
-1.791333e-05
-0.001332287
-1.89954e-05
-0.001311644
-2.064262e-05
-0.001293078
-1.856611e-05
-0.001275502
-1.757627e-05
-0.001302586
2.708408e-05
-0.001295827
-6.758959e-06
-0.001284155
-1.167215e-05
-0.001271763
-1.239175e-05
-0.001261169
-1.059375e-05
-0.001249569
-1.160015e-05
-0.0012392
-1.036954e-05
-0.001230072
-9.127124e-06
-0.001221144
-8.928451e-06
-0.001208773
-1.237047e-05
-0.001195258
-1.351523e-05
-0.001184262
-1.099603e-05
-0.001175148
-9.114586e-06
-0.001167847
-7.301036e-06
-0.001156429
-1.141746e-05
-0.001140834
-1.559478e-05
-0.001126517
-1.431697e-05
-0.001113274
-1.324347e-05
-0.0010968
-1.647344e-05
-0.001081535
-1.526597e-05
-0.001064495
-1.703949e-05
-0.001045455
-1.90404e-05
-0.001026417
-1.903807e-05
-0.001007804
-1.861237e-05
-0.0009770509
-3.075329e-05
-0.0009432896
-3.376127e-05
-0.0009259308
-1.735881e-05
-0.0009086346
-1.729615e-05
-0.0008682001
-4.043449e-05
-0.0005661088
-0.0003020913
0.0005182333
-0.001084342
0.001679117
-0.001160884
0.0001823273
0.00149679
-0.000373997
0.0005563243
-0.0001421069
-0.0002318901
0.0002698547
-0.0004119617
0.0006436112
-0.0003737565
0.0008965036
-0.0002528923
0.001053918
-0.000157414
0.00115113
-9.721256e-05
0.001216686
-6.555568e-05
0.001274887
-5.820114e-05
0.001324509
-4.962241e-05
0.001365296
-4.078626e-05
0.001395359
-3.006389e-05
0.001421299
-2.593916e-05
0.001444398
-2.309923e-05
0.001468281
-2.388277e-05
0.001490244
-2.196366e-05
0.001507813
-1.756889e-05
0.001524092
-1.627912e-05
0.001542778
-1.868608e-05
0.001559833
-1.705464e-05
0.001575296
-1.546343e-05
0.001593307
-1.801028e-05
0.001608488
-1.51809e-05
0.001626959
-1.847098e-05
0.001648635
-2.167621e-05
0.001666991
-1.835623e-05
0.001681845
-1.485371e-05
0.001698295
-1.644985e-05
0.001716496
-1.820137e-05
0.001728753
-1.225716e-05
0.001691399
3.735423e-05
0.001715757
-2.435812e-05
0.001746233
-3.04762e-05
0.001776735
-3.050203e-05
0.001807152
-3.041678e-05
0.001839329
-3.217741e-05
0.00186953
-3.02009e-05
0.001896618
-2.708788e-05
0.001925939
-2.932113e-05
0.00195904
-3.310018e-05
0.001995005
-3.596557e-05
0.002025342
-3.033737e-05
0.002054133
-2.879059e-05
0.002085024
-3.089118e-05
0.002118327
-3.330265e-05
0.002152197
-3.38697e-05
0.002190477
-3.828019e-05
0.002230042
-3.956503e-05
0.002269287
-3.924515e-05
0.002309335
-4.004837e-05
0.002346184
-3.684858e-05
0.002390792
-4.460766e-05
0.002437307
-4.651548e-05
0.002485839
-4.853202e-05
0.002537587
-5.174817e-05
0.002590938
-5.335096e-05
0.002650144
-5.920627e-05
0.002715453
-6.530831e-05
0.002781527
-6.607432e-05
0.002853312
-7.178491e-05
0.002935948
-8.263557e-05
0.003036089
-0.0001001416
0.003241967
-0.0002058776
0.003384128
-0.0001421608
0.003545663
-0.000161535
0.003726123
-0.0001804604
0.003958288
-0.000232165
0.004190151
-0.0002318632
0.004765139
-0.0005749876
0.0001409617
0.0004709749
-0.001787656
0.002813471
-7.284595e-05
0.001100145
0.000308879
-0.0006136151
0.0008482848
-0.0009513675
0.001288302
-0.0008137732
0.001619626
-0.0005842167
0.001869185
-0.0004069735
0.002061542
-0.0002895694
0.002216348
-0.0002203616
0.002355572
-0.0001974246
0.002480451
-0.0001745021
0.002593756
-0.0001540912
0.002693719
-0.000130027
0.002786753
-0.0001189725
0.002872549
-0.0001088954
0.002955976
-0.0001073095
0.003034662
-0.0001006504
0.003108095
-9.100118e-05
0.00317741
-8.55941e-05
0.003246341
-8.761791e-05
0.003312087
-8.280006e-05
0.00337458
-7.795621e-05
0.003437647
-8.107735e-05
0.003496515
-7.404933e-05
0.00355664
-7.859633e-05
0.003617159
-8.219466e-05
0.003675706
-7.690304e-05
0.003729856
-6.900447e-05
0.003785078
-7.167096e-05
0.003839712
-7.283611e-05
0.003891313
-6.385839e-05
0.003855025
7.364266e-05
0.003917295
-8.662813e-05
0.0039825
-9.568137e-05
0.004047517
-9.551903e-05
0.004112204
-9.510323e-05
0.004177217
-9.719081e-05
0.004241338
-9.432135e-05
0.004301977
-8.772729e-05
0.004364569
-9.191325e-05
0.004427692
-9.622344e-05
0.004494312
-0.0001025852
0.004555719
-9.174478e-05
0.004617177
-9.024775e-05
0.004678577
-9.22916e-05
0.004742115
-9.684079e-05
0.004805186
-9.694077e-05
0.004871662
-0.0001047558
0.004939328
-0.0001072317
0.005006693
-0.0001066093
0.005075775
-0.0001091306
0.005141519
-0.0001025924
0.005213958
-0.0001170469
0.005286121
-0.0001186789
0.005361721
-0.000124132
0.005438196
-0.0001282228
0.005517576
-0.0001327309
0.005600109
-0.0001417399
0.005688544
-0.0001537425
0.005777127
-0.0001546574
0.005871326
-0.0001659845
0.005973613
-0.0001849223
0.006090867
-0.0002173952
0.006375541
-0.0004905522
0.006535674
-0.0003022932
0.006719204
-0.0003450653
0.006917348
-0.0003786043
0.007177466
-0.0004922832
0.007398116
-0.0004525135
0.00804438
-0.001221252
0.00720164
0.0009837021
-0.005766633
0.004854757
0.001124881
-0.005392713
-0.0006740802
-0.005262472
-0.0002761094
-0.005100094
-0.0002973647
-0.004977455
-0.0002271159
-0.004859595
-0.0002141302
-0.004756856
-0.0001867612
-0.004555148
-0.0003383934
-0.004481257
-0.0001331615
-0.004419058
-0.0001071799
-0.004359129
-0.0001012242
-0.004304006
-9.087122e-05
-0.004248478
-9.105505e-05
-0.004194985
-8.796113e-05
-0.004141318
-8.710317e-05
-0.004091893
-7.854746e-05
-0.004042704
-7.579723e-05
-0.003995343
-7.342244e-05
-0.00394647
-7.548351e-05
-0.003900027
-7.107995e-05
-0.003853026
-7.118023e-05
-0.003807665
-6.773205e-05
-0.003764003
-6.268714e-05
-0.003719248
-6.535622e-05
-0.003674117
-6.704674e-05
-0.003627769
-6.962151e-05
-0.003583204
-6.608397e-05
-0.003539158
-6.280161e-05
-0.003497186
-5.82381e-05
-0.003452376
-6.287816e-05
-0.003408232
-6.29755e-05
-0.003360991
-6.874621e-05
-0.003316573
-6.232609e-05
-0.003271897
-6.05348e-05
-0.00322577
-6.403982e-05
-0.0031782
-6.656622e-05
-0.003129395
-6.9447e-05
-0.003081856
-6.610538e-05
-0.003034442
-6.499064e-05
-0.003062696
5.533809e-05
-0.00302411
-4.534443e-05
-0.002982689
-5.309329e-05
-0.00293958
-5.550069e-05
-0.002897752
-5.242139e-05
-0.002853272
-5.60806e-05
-0.0028092
-5.444189e-05
-0.00276371
-5.461702e-05
-0.002717312
-5.532605e-05
-0.002666948
-6.273428e-05
-0.002614972
-6.549194e-05
-0.002562784
-6.318353e-05
-0.002509116
-6.278228e-05
-0.002454039
-6.237824e-05
-0.002393125
-7.233187e-05
-0.002327527
-8.119213e-05
-0.002259668
-8.21762e-05
-0.002189366
-8.354589e-05
-0.002112122
-9.371703e-05
-0.002031919
-9.546869e-05
-0.001944156
-0.0001048032
-0.00184866
-0.0001145365
-0.001744853
-0.0001228448
-0.001632092
-0.0001313738
-0.001496515
-0.0001663294
-0.001342448
-0.0001878291
-0.001180627
-0.0001791796
-0.000992251
-0.000205672
-0.0007577171
-0.0002749684
-0.0003560574
-0.000703751
0.0006090687
-0.002049468
-0.002339471
-0.0008254356
-0.001346015
0.003893448
0.0001208003
-0.001918277
0.0008324189
-0.001274408
0.0006073153
0.000602774
0.0002392369
0.0002175089
-0.001323361
0.00193289
-0.003147569
0.003063041
-0.00374488
0.001646999
-0.0035239
6.633926e-06
-0.003078948
-0.000721394
-0.002456191
-0.001097771
-0.001726569
-0.001298369
-0.0009708158
-0.001343999
-0.0003988016
-0.000988754
0.0001308093
-0.0009080646
0.0006701143
-0.0009298896
0.001117852
-0.0007656943
0.001621134
-0.0008671023
0.001984287
-0.0006029329
0.002223077
-0.0002252267
0.002143706
0.0005138508
0.001393882
0.00133377
0.0001991951
0.001635728
-0.0006691606
0.001325057
-0.0008598245
0.000494461
-0.0003632871
-0.0008437895
0.0003952859
-0.001362574
0.0008833735
-0.0007498825
0.0008728428
0.0001131123
0.0005236115
0.0003600158
-0.0002204024
0.001021047
-0.0007110514
0.0008761347
-0.0006507022
5.795238e-06
-0.0004266858
-0.0003686345
-0.0002976093
-0.0002046159
-7.888768e-05
-0.0003245006
0.0002988477
-0.0006154777
0.0004275894
-0.0002218854
0.0003383707
0.0001506235
0.0003689276
-2.419196e-05
0.0003474976
-1.431968e-05
-0.0001666216
0.0007686737
-0.0004300847
0.0004964804
4.016773e-05
-0.0007462616
0.0004267327
-0.0006373737
0.0004289378
0.0002016058
0.0005437706
0.000120122
0.001504766
-0.002049339
0.0009488155
-9.122064e-05
0.01019697
0.001508708
-0.0009878282
-0.001557712
0.002754091
-0.002179033
0.003140466
-0.0003298448
0.003767359
-0.00100209
0.004483155
-0.001459831
0.004678886
0.0001413482
0.002777236
0.004403335
-0.0003671062
0.005461716
-0.001038946
-0.0002438389
-0.0001370578
-0.002609169
0.000651665
-0.001919007
0.001599034
-0.001487453
0.002027552
0.0001217119
0.001676172
0.001418874
0.0005382143
0.001587234
-0.0009487307
0.001350665
-0.002211558
0.001325083
-0.003265088
0.001432773
-0.004171136
0.001440831
-0.004873652
0.00121578
-0.00537662
0.0009419299
-0.005731428
0.0007114361
-0.005983777
0.0005390845
-0.006167734
0.0004191512
-0.006305073
0.0003352748
-0.006408283
0.0002725509
-0.006486069
0.0002256475
-0.006543329
0.0001869345
-0.006583497
0.0001545094
-0.006610526
0.0001297513
-0.006625583
0.0001063149
-0.006628045
7.789512e-05
-0.006618717
4.501531e-05
-0.006473525
-0.0001815284
-0.006466058
3.605892e-05
-0.006452635
3.679194e-05
-0.006430163
1.854686e-05
-0.006396317
-5.705597e-06
-0.006357454
-1.468234e-05
-0.006309727
-3.306601e-05
-0.00624934
-6.155502e-05
-0.006186329
-6.485771e-05
-0.006115407
-7.717607e-05
-0.006033873
-9.614478e-05
-0.005942696
-0.000112886
-0.005840868
-0.0001312524
-0.005734502
-0.0001362556
-0.005619704
-0.0001501412
-0.005495301
-0.0001681451
-0.005362246
-0.0001857794
-0.005222123
-0.0002013049
-0.005079001
-0.0002094423
-0.004933
-0.0002179909
-0.004788531
-0.0002177929
-0.004637754
-0.0002338317
-0.004486883
-0.0002355039
-0.00433586
-0.0002349395
-0.004180235
-0.0002422629
-0.004016157
-0.0002568582
-0.003842303
-0.0002737744
-0.003667231
-0.0002724907
-0.00348639
-0.000281008
-0.003297974
-0.0002945639
-0.003108762
-0.0002942806
-0.002910514
-0.0003104975
-0.0027035
-0.0003259173
-0.00255046
-0.0002353165
-0.002342174
-0.0003321448
-0.002130246
-0.0003409505
-0.001919073
-0.0003420904
-0.001712351
-0.0003360468
-0.001516427
-0.0003162406
-0.001322622
-0.0003127888
-0.001133939
-0.0003037751
-0.0009609538
-0.0002732122
-0.0007786672
-0.0002904566
-0.0005967731
-0.000288524
-0.0003927376
-0.000329703
-0.0002050355
-0.0002987712
-8.828608e-06
-0.0003185004
0.0001822711
-0.0003053404
0.0003722735
-0.0003043366
0.0005615934
-0.000303765
0.0007431613
-0.0002889922
0.0009269438
-0.000295338
0.001106711
-0.0002884701
0.001284776
-0.0002850765
0.001459248
-0.0002783176
0.001628984
-0.0002688984
0.001794443
-0.0002606997
0.001952379
-0.0002456503
0.002101287
-0.000227042
0.002240776
-0.0002076739
0.002369845
-0.0001866304
0.002485394
-0.0001585785
0.00258643
-0.0001274708
0.002658676
-5.572603e-05
0.002720375
-2.36359e-05
0.002352417
0.0006371871
0.001275522
-0.0009199497
0.01482856
-0.002210997
9.759671e-05
-0.001713355
-0.001486467
-0.002246711
0.002050858
-0.001559447
-0.0009839703
-0.0006596723
-0.001687143
-0.0005915207
-8.632329e-05
-0.0003701218
-0.0003578178
-4.114466e-05
-0.0005584917
0.0002273209
-0.0004382391
0.0003549502
-0.0001441213
0.0001759306
0.0003437767
-0.0001960167
0.000564313
-0.0002748774
8.631381e-05
-0.0001216912
-0.0002347298
3.149172e-05
-0.0002357278
0.0001909611
-0.0002438562
0.0003892876
-0.0003207758
0.0006798336
-0.0005049162
0.00107636
-0.0006903346
0.001337747
-0.0003813637
0.001312984
0.0002458993
0.000618221
0.001261974
-0.0003541465
0.001237917
-0.001148625
0.0009895766
-0.001679222
0.001198247
-0.001082338
-0.0007288717
0.0001203912
-0.002160396
0.00116276
-0.001955384
0.001382273
-0.0002232428
0.0006763304
0.001490599
7.271429e-05
0.0008915487
-0.0008054876
0.0006137752
-0.002370966
0.002028123
-0.003566221
0.002403591
-0.003874941
0.001169329
-0.003667873
6.891996e-05
-0.003287309
-0.0005120861
-0.002722354
-0.0009362836
-0.002006811
-0.00122546
-0.001238826
-0.001324732
-0.0002762136
-0.001725761
0.0005232908
-0.001433595
0.001215574
-0.001229532
0.001950588
-0.001307967
0.0025867
-0.001176562
0.003031812
-0.0005267194
0.002758063
0.0009553057
0.001446479
0.002469464
0.0002722885
0.0007716534
-0.009288026
0.02334493
-0.002463624
0.003332874
-0.002592948
-0.001357143
-0.002935396
0.002393306
-0.002015466
-0.0019039
-0.0009516322
-0.002750977
-0.0008204517
-0.0002175038
-0.0005343435
-0.0006439259
-0.000130769
-0.0009620662
0.0002054585
-0.0007744667
0.0003783301
-0.0003169929
0.0002276339
0.000494473
-0.0002070048
0.0009989517
-0.0003601517
0.0002394607
-0.0001963743
-0.0003985072
-3.085875e-05
-0.0004012433
0.0001688485
-0.0004435634
0.0004265414
-0.0005784688
0.0007792359
-0.0008576107
0.001269776
-0.001180874
0.001576762
-0.0006883495
0.001675332
0.0001473288
0.001120273
0.001817033
-0.0003213894
0.002679579
-0.001625249
0.002293436
-0.001974048
0.001547046
-0.001106577
-0.001596342
0.0001642788
-0.003431252
0.001271716
-0.003062821
0.001537294
-0.0004888201
0.0008425878
0.002185305
-0.0004902796
0.002224416
-0.002525191
0.002648687
-0.004215652
0.003718584
-0.004777328
0.002965267
-0.004694556
0.001086557
-0.004473575
-0.000152061
-0.004025959
-0.0009597026
-0.003312126
-0.001650116
-0.002428524
-0.002109063
-0.001462898
-0.002290357
-0.0002817826
-0.002906877
0.0006957195
-0.002411097
0.001548989
-0.002082801
0.002462001
-0.00222098
0.003233993
-0.001948553
0.003778847
-0.001071574
0.003805169
0.0009289837
0.002735613
0.00353902
0.001711629
0.001296272
0.001800335
-0.001646418
0.003104326
-0.003483024
0.003592467
-0.0008179861
0.004111477
-0.0015211
0.004613772
-0.001962126
0.004878125
-0.0001230043
0.003831679
0.005449781
0.0008033633
0.008490032
-0.001323871
0.001883395
-0.002042134
-0.001890906
-0.001966868
-0.001994273
-0.001066119
-0.002388202
-0.0001342405
-0.0008101664
-0.000547532
0.001832165
-0.002774402
0.003814104
-0.0049789
0.003555163
-0.006351901
0.002698083
-0.007198674
0.002279547
-0.007736387
0.001978544
-0.008069555
0.001548949
-0.00826962
0.001141995
-0.008391546
0.0008333614
-0.008466698
0.0006142365
-0.008512808
0.0004652613
-0.008539581
0.0003620477
-0.008551844
0.0002848147
-0.00855343
0.0002272333
-0.008545821
0.000179325
-0.008529948
0.0001386364
-0.008508011
0.0001078149
-0.008479954
7.825741e-05
-0.008446568
4.450874e-05
-0.008409131
7.5788e-06
-0.008209818
-0.0003808413
-0.008176169
2.4101e-06
-0.00813428
-5.097761e-06
-0.008084855
-3.087813e-05
-0.008024087
-6.647322e-05
-0.007958067
-8.070216e-05
-0.007882042
-0.0001090918
-0.007790169
-0.0001534277
-0.007694619
-0.0001604077
-0.007589859
-0.0001819357
-0.007472917
-0.000213087
-0.007345418
-0.0002403855
-0.007205594
-0.000271076
-0.007060919
-0.0002809301
-0.006907014
-0.0003040469
-0.006743203
-0.000331956
-0.006571086
-0.0003578961
-0.006392487
-0.0003799035
-0.006212457
-0.0003894724
-0.006030314
-0.000400134
-0.005851677
-0.0003964304
-0.005666309
-0.0004191995
-0.005481218
-0.0004205952
-0.005295473
-0.0004206844
-0.005103416
-0.0004343197
-0.004900904
-0.00045937
-0.004686136
-0.0004885424
-0.004469536
-0.0004890914
-0.004245816
-0.000504728
-0.004012896
-0.0005274838
-0.003779226
-0.0005279507
-0.003534581
-0.000555142
-0.00327938
-0.0005811188
-0.003089688
-0.0004250083
-0.002832931
-0.0005889015
-0.002574808
-0.0005990736
-0.002318866
-0.0005980323
-0.002068755
-0.0005861582
-0.001830984
-0.000554011
-0.001594821
-0.0005489522
-0.001364248
-0.0005343475
-0.00115305
-0.0004844112
-0.0009299782
-0.0005135279
-0.0007057351
-0.0005127672
-0.0004552042
-0.0005802339
-0.00022412
-0.0005298554
1.979059e-05
-0.000562411
0.0002533627
-0.0005389125
0.000489031
-0.0005400048
0.000724165
-0.0005388991
0.000951035
-0.0005158622
0.001181288
-0.0005255914
0.001406541
-0.0005137228
0.001630338
-0.0005088729
0.001850646
-0.0004986262
0.00206629
-0.0004845421
0.002277589
-0.000471999
0.002480764
-0.0004488251
0.00267445
-0.0004207282
0.002858099
-0.0003913232
0.003030501
-0.0003590318
0.00318786
-0.0003159374
0.003329649
-0.0002692605
0.003433645
-0.0001597218
0.00353065
-0.0001206404
0.00320926
0.0009585769
0.0018891
0.002595682
-0.0005148234
0.006297371
0.0003201491
-0.002753249
0.001041796
-0.001996054
0.000671567
0.0009730026
-0.0004762368
0.001365313
-0.002842115
0.004298769
-0.004397555
0.004618481
-0.00459017
0.001839614
-0.00432431
-0.0002592261
-0.003819337
-0.001226367
-0.003051707
-0.001865401
-0.002163117
-0.00218696
-0.001232211
-0.002274904
-0.0005091913
-0.001711774
0.0001623112
-0.001579567
0.0008275698
-0.001595148
0.001364589
-0.001302713
0.001965546
-0.00146806
0.002419076
-0.001056463
0.002701118
-0.0005072679
0.002848429
0.0003665398
0.002357801
0.001824399
0.0008588873
0.003134641
-0.0003839164
0.002567861
-0.0005832239
0.0006937686
-8.11784e-05
-0.001345835
0.0006817624
-0.002125514
0.001254673
-0.001322793
0.001263132
0.0001046531
0.0005547021
0.001068446
-0.0005083711
0.00208412
-0.0009755759
0.001343339
-0.0008240087
-0.000145772
-0.0004742245
-0.0007184187
-0.000258492
-0.0004203484
1.361002e-05
-0.0005966027
0.000474852
-0.00107672
0.0006494972
-0.0003965306
0.0005168129
0.0002833079
0.0005166943
-2.407334e-05
0.0004114809
9.08937e-05
-0.0002204875
0.001400642
-0.0004411667
0.0007171596
0.0001220944
-0.001309523
0.0005652439
-0.001080523
0.0006704653
9.638443e-05
0.001119599
-0.000329012
0.001859165
-0.002788905
-0.0002139026
0.001981847
-0.006547059
0.01653013
-0.007537057
0.002114879
-0.007134335
-0.001076802
-0.006992312
-0.0004181332
-0.006813566
-0.0004761104
-0.00668028
-0.0003604017
-0.006551396
-0.0003430139
-0.006441997
-0.0002961605
-0.006204283
-0.0005761068
-0.006124005
-0.0002134398
-0.006049907
-0.000181278
-0.005977618
-0.000173513
-0.005909485
-0.0001590042
-0.005840082
-0.0001604587
-0.005772854
-0.0001551889
-0.005704451
-0.0001555062
-0.005640069
-0.0001429294
-0.005574604
-0.0001412621
-0.005511214
-0.0001368127
-0.005445493
-0.0001412047
-0.005382315
-0.0001342575
-0.005317745
-0.0001357507
-0.0052545
-0.0001309769
-0.005192348
-0.0001248388
-0.005128876
-0.0001288287
-0.005065358
-0.0001305644
-0.005000324
-0.0001346553
-0.004936916
-0.0001294921
-0.004872842
-0.0001268761
-0.004810639
-0.0001204403
-0.00474468
-0.0001288374
-0.004680084
-0.0001275718
-0.004611556
-0.0001372743
-0.004545742
-0.0001281398
-0.004478538
-0.0001277386
-0.004409644
-0.0001329343
-0.004339123
-0.000137087
-0.004266874
-0.0001416964
-0.004194568
-0.000138411
-0.004120057
-0.0001395015
-0.004136278
7.155941e-05
-0.004067452
-0.0001141709
-0.00400212
-0.0001184251
-0.003933518
-0.0001241029
-0.003866463
-0.0001194761
-0.003795711
-0.0001268331
-0.003725236
-0.0001249163
-0.003652452
-0.0001274016
-0.003578517
-0.0001292612
-0.003499977
-0.0001412737
-0.003419615
-0.0001458539
-0.003338518
-0.0001442804
-0.003254901
-0.0001463997
-0.003169245
-0.0001480338
-0.003076872
-0.0001647052
-0.002979235
-0.0001788295
-0.002878931
-0.0001824804
-0.00277527
-0.0001872069
-0.002662834
-0.0002061529
-0.002546779
-0.0002115238
-0.0024212
-0.0002303822
-0.002286187
-0.0002495491
-0.002139998
-0.0002690333
-0.001981194
-0.0002901777
-0.001791573
-0.000355951
-0.001576235
-0.0004031669
-0.001344924
-0.0004104901
-0.001058864
-0.0004917329
-0.0006843165
-0.0006495155
-0.0001778059
-0.001210262
0.0008397738
-0.003067048
0.002187376
-0.003687073
0.001416816
0.003584031
0.0009188883
0.001598073
0.00110694
-0.0008016668
0.001643182
-0.00148761
0.002105294
-0.001275885
0.002460322
-0.0009392448
0.002732527
-0.0006791777
0.002945389
-0.0005024314
0.00311891
-0.0003938826
0.003278673
-0.0003571883
0.003425282
-0.000321111
0.003561992
-0.0002908006
0.003685068
-0.0002531036
0.003801717
-0.0002356214
0.003910706
-0.0002178845
0.004018015
-0.0002146183
0.004120826
-0.0002034615
0.0042184
-0.0001885752
0.004311567
-0.0001787606
0.004404612
-0.0001806634
0.004494434
-0.000172622
0.004580609
-0.000164131
0.00466788
-0.000168348
0.004749975
-0.0001561447
0.004833374
-0.0001619955
0.004916833
-0.0001656533
0.004998671
-0.0001587416
0.005075614
-0.0001459468
0.005154024
-0.000150081
0.005230538
-0.0001493508
0.005310409
-0.0001437285
0.005277704
0.000106347
0.005366422
-0.0001753457
0.005455919
-0.0001851783
0.005543651
-0.0001832511
0.005630442
-0.0001818946
0.005716979
-0.0001837278
0.005802763
-0.0001801054
0.005884378
-0.000169342
0.005967827
-0.0001753621
0.006050284
-0.0001786802
0.006136786
-0.0001890872
0.006217411
-0.0001723701
0.00629858
-0.0001714168
0.006378789
-0.000172501
0.006461024
-0.0001790749
0.006541921
-0.0001778383
0.006625964
-0.0001887988
0.00671086
-0.0001921274
0.00679508
-0.0001908299
0.006881598
-0.000195648
0.00696367
-0.0001846644
0.007052735
-0.0002061121
0.007140043
-0.0002059869
0.007231135
-0.0002152238
0.007322145
-0.0002192334
0.007415949
-0.000226534
0.007511885
-0.000237676
0.007613567
-0.0002554249
0.007714635
-0.0002557258
0.007820843
-0.0002721924
0.007935003
-0.0002990825
0.008060098
-0.0003424895
0.008388919
-0.0008193738
0.008557128
-0.0004705016
0.008754688
-0.0005426255
0.008969796
-0.0005937126
0.009255741
-0.0007782282
0.009520137
-0.0007169093
0.01017714
-0.001878254
0.001872816
0.002528156
-0.00261325
0.003669125
0.002419392
0.001706836
0.002409022
-0.0007912967
0.002702449
-0.001781037
0.003058536
-0.001631973
0.003374975
-0.001255684
0.00364119
-0.0009453923
0.003862878
-0.0007241191
0.004051562
-0.0005825669
0.004230565
-0.0005361915
0.004397222
-0.0004877678
0.004554837
-0.0004484154
0.00469838
-0.0003966466
0.004835401
-0.0003726424
0.004964089
-0.0003465727
0.005090739
-0.0003412687
0.005212758
-0.0003254806
0.005328475
-0.0003042915
0.005439426
-0.0002897114
0.005549943
-0.0002911804
0.005656687
-0.0002793664
0.005759106
-0.0002665499
0.005862995
-0.0002722374
0.005960397
-0.0002535464
0.006059403
-0.000261001
0.006158504
-0.0002647547
0.006255399
-0.000255637
0.006347109
-0.0002376565
0.006440272
-0.0002432438
0.006531206
-0.0002402853
0.006627936
-0.0002404584
0.006586307
0.0001479764
0.006690721
-0.0002797604
0.006797873
-0.0002923303
0.00690176
-0.0002871376
0.007004544
-0.0002846792
0.00710703
-0.0002862137
0.007208415
-0.0002814899
0.007304962
-0.0002658888
0.00740349
-0.0002738901
0.007500673
-0.0002758633
0.007602546
-0.0002909599
0.007697431
-0.0002672556
0.007793101
-0.0002670868
0.007887675
-0.0002670746
0.007984299
-0.000275699
0.008079244
-0.0002727838
0.008177952
-0.0002875067
0.008277364
-0.0002915393
0.008376059
-0.0002895244
0.008477634
-0.0002972235
0.008573456
-0.0002804866
0.008678097
-0.0003107526
0.008779773
-0.0003076634
0.008885858
-0.000321309
0.008991987
-0.0003253624
0.009100556
-0.000335103
0.009212084
-0.0003492034
0.009329633
-0.0003729741
0.009446169
-0.0003722614
0.009568494
-0.0003945174
0.009700291
-0.0004308794
0.01004892
-0.0006911228
0.01023047
-0.001000919
0.01042142
-0.0006614557
0.01064995
-0.0007711554
0.01090684
-0.0008506014
0.0112412
-0.001112583
0.0116073
-0.001083016
0.01220696
-0.002477906
0.01150905
0.002570718
-0.009078126
0.008239905
0.0029531
-0.008703596
-0.001451332
-0.008505626
-0.0006161033
-0.008297089
-0.0006846472
-0.008137896
-0.0005195947
-0.00798702
-0.0004938896
-0.007861682
-0.0004214991
-0.007738806
-0.0006989823
-0.007486039
-0.0004662068
-0.007397789
-0.0002695282
-0.007311065
-0.0002602365
-0.007228986
-0.0002410832
-0.007145131
-0.0002443136
-0.007063585