/*--------------------------------*- C++ -*----------------------------------*\
| =========                 |                                                 |
| \\      /  F ield         | OpenFOAM: The Open Source CFD Toolbox           |
|  \\    /   O peration     | Version:  2406                                  |
|   \\  /    A nd           | Website:  www.openfoam.com                      |
|    \\/     M anipulation  |                                                 |
\*---------------------------------------------------------------------------*/
FoamFile
{
    version     2.0;
    format      ascii;
    arch        "LSB;label=32;scalar=64";
    class       volVectorField;
    location    "0.56";
    object      U;
}
// * * * * * * * * * * * * * * * * * * * * * * * * * * * * * * * * * * * * * //

dimensions      [0 1 -1 0 0 0 0];

internalField   nonuniform List<vector> 
4531
(
(3.249105e-05 6.560756e-07 0)
(1.220592e-05 -1.194823e-07 1.115106e-28)
(1.542686e-05 2.255052e-08 0)
(1.235888e-05 1.406259e-08 0)
(1.248371e-05 -6.470549e-09 0)
(1.18148e-05 1.679385e-08 0)
(1.11203e-05 -6.988294e-09 0)
(1.134114e-05 6.755651e-09 -1.68396e-28)
(1.047411e-05 8.080112e-09 0)
(1.031738e-05 -4.05719e-09 0)
(1.035353e-05 5.576662e-09 -1.130244e-27)
(1.004606e-05 3.954149e-10 2.127223e-27)
(9.591089e-06 9.049384e-09 1.775838e-27)
(9.6699e-06 -3.670624e-09 -1.782464e-27)
(1.010519e-05 8.834618e-10 0)
(9.913103e-06 1.433752e-09 0)
(9.812914e-06 2.354994e-09 0)
(9.707782e-06 4.679196e-09 0)
(1.026879e-05 -1.005858e-08 0)
(1.03135e-05 1.268999e-08 0)
(1.053843e-05 -3.385164e-09 1.240324e-30)
(1.067026e-05 3.450359e-08 0)
(1.295676e-05 -1.261132e-07 -6.425151e-27)
(6.671777e-06 6.907171e-07 7.521676e-27)
(2.505464e-05 -1.05713e-06 0)
(9.433288e-07 -1.538437e-05 -1.042511e-24)
(-8.052634e-07 4.380903e-06 -4.195563e-27)
(8.187015e-08 -2.553706e-06 8.884672e-26)
(-5.169938e-08 -6.702579e-07 -9.049646e-26)
(-1.756511e-08 -7.428058e-07 -3.664684e-26)
(-1.243732e-08 -5.269603e-07 7.130172e-26)
(-8.189465e-09 -3.725801e-07 -3.465287e-26)
(-8.744979e-09 -1.732537e-07 0)
(-8.067191e-09 -1.805554e-07 -3.006845e-26)
(-1.902988e-09 -1.836628e-07 3.007334e-26)
(-3.792489e-09 -7.219142e-08 0)
(-2.571177e-09 -6.450019e-08 0)
(-2.12008e-09 -5.125782e-08 -1.35533e-26)
(-1.020522e-09 -2.037053e-08 1.355448e-26)
(-1.456487e-09 5.189677e-09 0)
(-9.297742e-10 1.002267e-09 1.287673e-26)
(-6.40879e-10 7.70348e-09 -2.546656e-26)
(-4.931657e-10 7.021495e-09 3.117534e-27)
(-1.972264e-10 1.628133e-08 3.077033e-27)
(-1.923895e-10 2.959821e-08 -1.596599e-27)
(-3.071605e-10 2.538463e-08 -7.69083e-27)
(5.234071e-11 2.734499e-08 3.83407e-27)
(-2.396404e-10 3.08248e-08 -2.283017e-27)
(-1.176967e-10 1.861226e-08 1.142309e-27)
(-1.691901e-10 1.0841e-08 3.830594e-28)
(-1.466868e-10 4.64471e-10 -2.28265e-27)
(-1.900547e-10 -1.043334e-08 7.598949e-28)
(-1.630002e-10 -1.581018e-08 -3.063062e-27)
(-2.877506e-10 -2.386002e-08 3.057465e-27)
(-2.158996e-10 -2.431358e-08 4.644773e-27)
(-6.056549e-10 -3.061878e-08 -6.166316e-27)
(-2.864237e-10 -3.104817e-08 -6.277817e-27)
(-5.493878e-10 -6.923518e-09 6.313008e-27)
(-1.206256e-09 -1.83314e-08 0)
(-6.571882e-10 1.003326e-08 0)
(-1.855896e-09 2.351887e-08 -1.353343e-26)
(-2.398625e-09 6.471175e-09 1.353225e-26)
(-3.371601e-09 2.010619e-09 0)
(-2.971593e-09 2.970915e-08 0)
(-4.808623e-09 7.274012e-08 -3.038548e-26)
(-4.590998e-09 1.42901e-07 3.038054e-26)
(-9.950604e-09 1.672473e-07 0)
(-5.97627e-09 3.553377e-07 3.466965e-26)
(-1.74403e-08 4.378527e-07 -3.466079e-26)
(-8.024437e-09 7.705806e-07 0)
(-6.870359e-08 5.079027e-07 -9.156195e-26)
(1.090786e-07 2.655148e-06 9.309599e-26)
(-8.259893e-07 -4.349553e-06 -1.908072e-25)
(9.335759e-07 1.488115e-05 1.220372e-24)
(2.543272e-05 1.068608e-06 6.039563e-25)
(7.006013e-06 -6.859279e-07 6.943559e-27)
(1.289114e-05 1.332014e-07 -2.328185e-27)
(1.069547e-05 -4.072571e-08 -2.561623e-27)
(1.053156e-05 9.526962e-09 4.646526e-31)
(1.000219e-05 -1.333969e-08 0)
(1.005536e-05 4.418278e-09 0)
(9.956593e-06 -7.106939e-09 0)
(9.827845e-06 5.973584e-09 -2.790278e-27)
(9.459658e-06 -8.22923e-09 6.293151e-27)
(9.918733e-06 -1.031954e-09 -3.502884e-27)
(9.694583e-06 -1.992784e-09 0)
(9.961894e-06 -6.226115e-09 0)
(1.017829e-05 4.163063e-09 8.228581e-28)
(1.026834e-05 -5.803216e-09 0)
(1.041996e-05 1.591096e-09 3.11181e-28)
(1.072101e-05 -1.032356e-08 -3.11408e-28)
(1.126235e-05 -1.08852e-09 -1.470273e-28)
(1.168947e-05 -7.411415e-09 2.069785e-27)
(1.181165e-05 6.865484e-09 2.269572e-27)
(1.181354e-05 -3.679989e-09 -6.611673e-27)
(1.259598e-05 -1.110395e-08 3.607938e-27)
(1.593849e-05 -4.326427e-08 -6.465018e-27)
(1.274202e-05 1.414513e-07 2.618463e-26)
(3.124005e-05 -6.368066e-07 1.245355e-25)
(2.335418e-05 -2.245269e-05 0)
(8.609392e-06 -8.776443e-06 2.603513e-24)
(1.067498e-05 -1.062965e-05 -4.19097e-24)
(8.898692e-06 -8.907114e-06 2.582154e-26)
(8.473198e-06 -8.457833e-06 -3.360082e-24)
(7.925408e-06 -7.920533e-06 3.160259e-24)
(7.943149e-06 -7.945202e-06 2.922132e-24)
(7.627944e-06 -7.614705e-06 3.107046e-24)
(7.057472e-06 -7.051757e-06 -2.897078e-24)
(7.268727e-06 -7.278073e-06 2.685482e-24)
(7.033517e-06 -7.017735e-06 -3.15837e-24)
(6.549646e-06 -6.540592e-06 2.371069e-26)
(6.284884e-06 -6.283974e-06 -2.181345e-26)
(6.476513e-06 -6.483853e-06 2.183499e-26)
(6.493306e-06 -6.488906e-06 0)
(6.143133e-06 -6.137008e-06 0)
(5.990145e-06 -5.98675e-06 -2.893725e-24)
(6.008123e-06 -6.009968e-06 6.522475e-29)
(5.89804e-06 -5.900968e-06 -2.985351e-24)
(5.897581e-06 -5.887226e-06 2.315439e-26)
(5.927407e-06 -5.937724e-06 0)
(5.888096e-06 -5.882819e-06 2.409306e-26)
(5.974597e-06 -5.983744e-06 -2.377048e-26)
(6.02996e-06 -6.030815e-06 0)
(5.831764e-06 -5.830125e-06 0)
(5.830164e-06 -5.83484e-06 -1.637902e-27)
(5.791721e-06 -5.797181e-06 0)
(5.811401e-06 -5.813391e-06 -1.524172e-27)
(5.995705e-06 -6.015378e-06 3.511716e-24)
(6.069609e-06 -6.079397e-06 -1.43417e-26)
(6.08148e-06 -6.098186e-06 3.847388e-24)
(6.155385e-06 -6.187717e-06 -1.694689e-26)
(6.208513e-06 -6.229241e-06 1.694747e-26)
(6.905328e-06 -7.05325e-06 0)
(6.674854e-06 -6.814064e-06 5.923527e-24)
(6.542171e-06 6.666122e-06 6.076723e-24)
(6.894827e-06 7.054346e-06 -5.622145e-27)
(6.153723e-06 6.171915e-06 1.711964e-26)
(6.119554e-06 6.152315e-06 -4.210297e-24)
(6.046085e-06 6.062686e-06 3.867648e-24)
(6.032849e-06 6.042347e-06 -3.824951e-24)
(5.969652e-06 5.988709e-06 -1.438167e-26)
(5.796164e-06 5.798318e-06 1.488953e-27)
(5.778927e-06 5.784056e-06 0)
(5.826411e-06 5.830916e-06 0)
(5.837961e-06 5.83606e-06 0)
(6.050422e-06 6.051145e-06 0)
(6.001451e-06 6.010596e-06 0)
(5.925202e-06 5.919482e-06 0)
(5.986969e-06 5.997232e-06 0)
(5.961446e-06 5.951096e-06 0)
(5.984821e-06 5.987247e-06 2.968947e-24)
(6.092154e-06 6.095188e-06 2.881601e-24)
(6.04375e-06 6.040712e-06 0)
(6.181551e-06 6.175952e-06 3.021115e-24)
(6.515163e-06 6.511008e-06 -2.926837e-24)
(6.49296e-06 6.500323e-06 0)
(6.302324e-06 6.301315e-06 2.309627e-26)
(6.571487e-06 6.562341e-06 2.945488e-24)
(7.054757e-06 7.039041e-06 2.272856e-26)
(7.285474e-06 7.294944e-06 -2.246539e-26)
(7.064568e-06 7.059063e-06 -2.895892e-24)
(7.624386e-06 7.611717e-06 5.24882e-27)
(7.885349e-06 7.889178e-06 -5.845162e-24)
(7.8542e-06 7.849438e-06 4.910782e-26)
(8.339624e-06 8.328482e-06 -3.333932e-24)
(8.683313e-06 8.694048e-06 0)
(1.106676e-05 1.098547e-05 0)
(8.557293e-06 8.774385e-06 1.108876e-26)
(2.282491e-05 2.19082e-05 1.099766e-23)
(2.050556e-05 1.941259e-05 -2.154192e-23)
(2.168958e-05 2.194324e-05 0)
(1.969262e-05 1.978767e-05 0)
(1.951653e-05 1.956281e-05 2.732582e-26)
(1.931424e-05 1.933684e-05 -6.76994e-24)
(1.927398e-05 1.927111e-05 1.330283e-23)
(1.907993e-05 1.915027e-05 6.131629e-24)
(1.85467e-05 1.856455e-05 -1.212024e-23)
(1.848008e-05 1.848043e-05 -5.910841e-24)
(1.86288e-05 1.862635e-05 0)
(1.868655e-05 1.864223e-05 0)
(1.933673e-05 1.930338e-05 -4.266809e-26)
(1.919595e-05 1.923744e-05 5.247095e-24)
(1.895749e-05 1.892961e-05 -4.199123e-26)
(1.914821e-05 1.91766e-05 0)
(1.910889e-05 1.905343e-05 5.192468e-24)
(1.913859e-05 1.912691e-05 -5.112161e-24)
(1.949544e-05 1.950591e-05 0)
(1.937749e-05 1.935631e-05 0)
(1.981964e-05 1.974933e-05 -5.282581e-24)
(2.079395e-05 2.073633e-05 -5.030804e-24)
(2.076483e-05 2.081021e-05 -3.747601e-26)
(2.025275e-05 2.024415e-05 7.713595e-26)
(2.112838e-05 2.099814e-05 -5.162369e-24)
(2.257494e-05 2.242215e-05 4.106818e-26)
(2.328704e-05 2.331974e-05 0)
(2.274217e-05 2.265923e-05 4.926197e-24)
(2.44932e-05 2.433715e-05 1.068428e-23)
(2.5294e-05 2.526825e-05 5.010069e-24)
(2.529174e-05 2.518348e-05 0)
(2.684909e-05 2.668449e-05 5.710384e-24)
(2.834752e-05 2.801872e-05 0)
(3.517959e-05 3.489273e-05 0)
(3.037639e-05 2.919193e-05 -6.65624e-24)
(7.054805e-05 6.601573e-05 -1.905181e-23)
(7.199137e-05 -6.766669e-05 1.714166e-23)
(3.063068e-05 -2.916999e-05 4.555581e-26)
(3.408488e-05 -3.390822e-05 4.64081e-27)
(2.899664e-05 -2.872369e-05 -4.983598e-26)
(2.737083e-05 -2.719008e-05 0)
(2.552376e-05 -2.540232e-05 1.820717e-26)
(2.547491e-05 -2.543476e-05 5.019991e-24)
(2.451186e-05 -2.434547e-05 0)
(2.272293e-05 -2.263635e-05 -4.970381e-24)
(2.323636e-05 -2.326666e-05 -7.653232e-26)
(2.250928e-05 -2.235555e-05 -1.950454e-27)
(2.105997e-05 -2.093047e-05 4.066794e-26)
(2.01968e-05 -2.018913e-05 0)
(2.071186e-05 -2.075646e-05 0)
(2.072462e-05 -2.066315e-05 0)
(1.970001e-05 -1.96237e-05 4.036001e-26)
(1.92092e-05 -1.918101e-05 4.980437e-24)
(1.923466e-05 -1.92375e-05 3.904928e-26)
(1.886496e-05 -1.885861e-05 5.021496e-24)
(1.890428e-05 -1.88527e-05 0)
(1.896085e-05 -1.899413e-05 -4.062716e-26)
(1.883887e-05 -1.881703e-05 5.52849e-24)
(1.911041e-05 -1.915432e-05 -8.250643e-26)
(1.927237e-05 -1.924282e-05 8.573035e-26)
(1.866691e-05 -1.862684e-05 -4.343106e-26)
(1.86411e-05 -1.864184e-05 5.652638e-24)
(1.852057e-05 -1.85233e-05 0)
(1.859624e-05 -1.861566e-05 6.00779e-24)
(1.916355e-05 -1.923869e-05 -4.691569e-26)
(1.939069e-05 -1.938876e-05 6.564703e-24)
(1.942731e-05 -1.945007e-05 -6.626718e-24)
(1.963352e-05 -1.968208e-05 7.19538e-24)
(1.986301e-05 -1.995843e-05 7.859293e-24)
(2.174529e-05 -2.199513e-05 -3.030667e-26)
(2.090199e-05 -1.987505e-05 -3.15967e-23)
(7.76344e-05 4.032636e-06 -3.004025e-24)
(2.740437e-05 2.644945e-08 -1.900878e-27)
(4.041765e-05 4.573889e-08 -1.256519e-26)
(3.483008e-05 9.800363e-08 7.978849e-27)
(3.390391e-05 1.049172e-07 6.441655e-30)
(3.218802e-05 9.507656e-09 0)
(3.226347e-05 2.7062e-08 7.273394e-27)
(3.196763e-05 -1.606926e-09 1.107298e-27)
(3.15683e-05 6.092886e-08 -1.796696e-26)
(3.040723e-05 -1.870914e-08 9.585455e-27)
(3.17487e-05 -2.260709e-08 0)
(3.11145e-05 -1.529315e-08 -6.593208e-27)
(3.189771e-05 -5.017208e-08 1.03752e-26)
(3.259997e-05 -1.020908e-09 -4.792657e-27)
(3.295139e-05 -3.275631e-08 3.387157e-27)
(3.345239e-05 -2.069195e-08 0)
(3.436742e-05 -9.196987e-08 7.108506e-28)
(3.607723e-05 -6.876637e-08 6.991756e-28)
(3.746032e-05 -6.993146e-08 -5.864166e-27)
(3.792667e-05 2.68892e-09 5.665711e-27)
(3.805203e-05 -9.611415e-08 1.237074e-26)
(4.081275e-05 -3.275771e-07 -1.232521e-26)
(5.059878e-05 -1.378679e-07 0)
(4.348499e-05 -8.061459e-07 6.423757e-26)
(9.534436e-05 -3.054446e-06 -3.097398e-25)
(4.845339e-06 -4.724384e-05 1.845089e-24)
(-3.678962e-09 7.931334e-06 -2.010453e-25)
(-1.237908e-07 -7.406012e-06 1.490779e-25)
(8.137734e-08 -2.816228e-06 0)
(1.738956e-08 -2.615708e-06 -5.097284e-28)
(2.639342e-08 -1.890418e-06 0)
(2.922377e-08 -1.361288e-06 -1.135474e-25)
(1.726094e-08 -7.153055e-07 1.136107e-25)
(-7.886773e-09 -6.725906e-07 -4.074876e-28)
(1.259077e-08 -6.59082e-07 5.039583e-26)
(7.636872e-09 -3.114843e-07 -5.022112e-26)
(2.1336e-09 -2.658048e-07 0)
(2.311711e-09 -2.132827e-07 0)
(5.515885e-09 -1.082488e-07 0)
(1.015064e-09 -2.364579e-08 0)
(7.85268e-11 -2.632463e-08 -2.21594e-26)
(4.542751e-10 -7.388381e-10 1.36344e-28)
(4.853164e-10 1.638866e-09 5.368479e-27)
(1.908188e-09 3.479562e-08 1.597921e-26)
(9.040192e-10 7.779231e-08 -8.015256e-27)
(-6.652122e-10 6.954826e-08 7.903816e-27)
(9.33535e-10 7.756921e-08 -1.713615e-26)
(-1.163481e-09 9.03523e-08 6.572032e-27)
(-1.556195e-09 5.657627e-08 -6.537932e-28)
(-1.713172e-09 3.433754e-08 5.361693e-30)
(-1.782861e-09 4.476894e-09 6.512269e-28)
(-1.535801e-09 -2.724464e-08 6.551088e-27)
(-1.073027e-09 -4.156712e-08 2.630048e-27)
(-9.892208e-10 -6.363213e-08 0)
(-3.207548e-10 -6.32557e-08 7.960635e-27)
(-1.199882e-09 -7.814858e-08 0)
(2.331732e-09 -7.574441e-08 0)
(9.612642e-10 3.572344e-10 -2.195896e-26)
(5.173439e-10 -2.407499e-08 4.464337e-26)
(4.494708e-09 6.872697e-08 2.32524e-26)
(-1.71247e-09 1.139157e-07 -4.574551e-26)
(-1.863186e-09 7.226936e-08 4.788986e-26)
(4.099956e-10 7.293677e-08 -4.76924e-26)
(6.771353e-09 1.68489e-07 -1.94974e-28)
(6.705479e-09 3.227238e-07 4.00074e-28)
(1.003222e-08 5.551438e-07 0)
(1.036112e-08 6.838768e-07 1.138565e-25)
(3.092821e-08 1.294602e-06 5.073604e-27)
(1.713415e-08 1.628152e-06 -1.19723e-25)
(3.45223e-08 2.661038e-06 0)
(4.721971e-08 2.36085e-06 0)
(-4.428962e-08 7.685352e-06 -2.790222e-27)
(-1.244617e-07 -7.927275e-06 6.4731e-27)
(4.866525e-06 4.572887e-05 1.689501e-24)
(9.91095e-05 3.068041e-06 6.71185e-26)
(4.200719e-05 1.00635e-06 -6.92046e-26)
(4.931608e-05 7.457009e-08 3.247117e-26)
(4.016255e-05 2.567312e-07 -3.822091e-27)
(4.004458e-05 3.571662e-08 -1.68209e-26)
(3.796229e-05 1.594663e-07 1.036508e-26)
(3.57498e-05 1.70853e-08 -6.999927e-27)
(3.626208e-05 6.970203e-08 1.225643e-27)
(3.364553e-05 9.506671e-08 1.370175e-28)
(3.304754e-05 -6.683652e-09 8.618818e-28)
(3.315275e-05 3.523619e-08 -3.8752e-27)
(3.219081e-05 4.322771e-08 5.563386e-27)
(3.082154e-05 4.417786e-08 -3.927377e-27)
(3.108712e-05 -4.217859e-08 -4.932632e-27)
(3.237031e-05 -7.758917e-09 4.966082e-27)
(3.178226e-05 1.958626e-08 -9.104464e-27)
(3.143515e-05 1.893734e-08 9.171226e-27)
(3.122119e-05 -3.111548e-08 -7.068272e-27)
(3.294801e-05 -7.327279e-08 7.064166e-27)
(3.314722e-05 8.086121e-09 0)
(3.391899e-05 -6.911825e-08 -2.12875e-30)
(3.473493e-05 -1.169342e-07 0)
(4.059548e-05 -8.364591e-10 2.435379e-27)
(2.632474e-05 1.055697e-09 -2.644451e-26)
(7.651298e-05 -4.047964e-06 0)
(0.0001740558 8.708922e-06 0)
(8.136101e-05 3.747632e-06 3.576913e-27)
(9.010783e-05 3.988429e-07 -2.044389e-26)
(7.435218e-05 8.436193e-07 0)
(7.333575e-05 1.956879e-07 -1.277276e-26)
(6.961444e-05 5.11032e-07 5.717583e-27)
(6.557282e-05 1.071108e-07 2.455472e-27)
(6.619274e-05 2.370019e-07 2.602548e-28)
(6.166464e-05 3.148057e-07 -1.626178e-28)
(6.040472e-05 1.608813e-10 -1.022911e-27)
(6.059613e-05 1.065985e-07 -4.574498e-27)
(5.887645e-05 1.594239e-07 4.977131e-28)
(5.652381e-05 1.199849e-07 -2.540086e-27)
(5.703578e-05 -1.16329e-07 7.218089e-27)
(5.920442e-05 -3.346703e-08 1.196879e-26)
(5.817327e-05 7.243592e-08 -1.204584e-26)
(5.749622e-05 5.531745e-08 0)
(5.73184e-05 -1.252513e-07 -3.227236e-28)
(6.038212e-05 -2.256508e-07 0)
(6.084928e-05 -2.182548e-08 -1.300667e-26)
(6.238671e-05 -2.456604e-07 1.298946e-26)
(6.444253e-05 -4.370888e-07 0)
(7.327414e-05 2.751157e-08 -2.879383e-27)
(5.540515e-05 -1.577178e-06 1.957285e-25)
(0.0001336553 -1.105033e-05 -2.409004e-25)
(1.411884e-05 -8.340253e-05 7.961025e-24)
(1.82842e-06 5.083426e-06 4.071888e-25)
(-3.023795e-07 -1.296278e-05 0)
(3.074845e-07 -6.253523e-06 -3.220026e-25)
(1.117753e-07 -5.265804e-06 3.230296e-25)
(1.138838e-07 -3.834623e-06 0)
(1.144206e-07 -2.800119e-06 -2.160439e-27)
(7.386171e-08 -1.600218e-06 -2.058077e-27)
(-7.47792e-09 -1.408607e-06 4.830151e-28)
(4.35072e-08 -1.338673e-06 -9.523244e-28)
(3.311724e-08 -7.14014e-07 -2.291566e-28)
(1.19637e-08 -5.95534e-07 0)
(1.234086e-08 -4.8088e-07 0)
(2.043709e-08 -2.764887e-07 0)
(6.627732e-09 -1.163695e-07 5.332739e-26)
(2.367054e-09 -1.02635e-07 -7.295073e-28)
(2.737561e-09 -4.777419e-08 -3.457061e-28)
(2.997296e-09 -3.547519e-08 -1.274275e-26)
(7.24565e-09 3.183913e-08 -2.52508e-26)
(3.745747e-09 1.115244e-07 5.044475e-26)
(-1.080446e-09 1.055118e-07 -2.517579e-26)
(3.157911e-09 1.234923e-07 1.247152e-26)
(-2.977851e-09 1.502147e-07 -1.248707e-26)
(-4.849626e-09 9.780479e-08 1.555407e-27)
(-5.287755e-09 6.210943e-08 1.541171e-27)
(-5.650834e-09 1.36489e-08 -9.327454e-27)
(-4.652901e-09 -3.865355e-08 -6.05816e-30)
(-3.168548e-09 -5.935926e-08 -3.120982e-27)
(-2.606886e-09 -9.309707e-08 0)
(-5.506161e-10 -8.876473e-08 -6.298171e-27)
(-2.423572e-09 -1.065656e-07 -1.264395e-26)
(8.426935e-09 -9.574457e-08 -2.553662e-26)
(4.711465e-09 4.271527e-08 1.556654e-25)
(4.75764e-09 1.875506e-08 8.805638e-28)
(1.578249e-08 1.929397e-07 -5.340081e-26)
(-2.19878e-09 2.802229e-07 -8.536915e-28)
(-2.314068e-09 2.272565e-07 -1.092754e-27)
(7.339054e-09 2.548366e-07 0)
(2.757887e-08 4.425445e-07 1.211502e-25)
(3.202687e-08 7.548939e-07 -1.204057e-25)
(4.237073e-08 1.198035e-06 1.286537e-25)
(5.656833e-08 1.521349e-06 -1.285659e-25)
(1.132058e-07 2.662016e-06 5.451987e-28)
(9.428611e-08 3.389076e-06 -1.687903e-27)
(1.464153e-07 5.281578e-06 0)
(2.375399e-07 5.522927e-06 0)
(-1.209203e-07 1.338615e-05 -3.588718e-25)
(1.499943e-06 -5.208362e-06 1.067062e-24)
(1.418414e-05 8.08386e-05 -4.984831e-24)
(0.0001355253 1.097422e-05 2.579482e-25)
(5.739109e-05 1.663252e-06 0)
(7.29877e-05 1.064049e-07 1.195018e-26)
(6.464814e-05 3.91274e-07 -1.517808e-26)
(6.237855e-05 3.565874e-07 6.086753e-27)
(5.914943e-05 8.540012e-08 1.501211e-26)
(5.912308e-05 7.833115e-08 -1.51187e-26)
(5.86069e-05 1.782661e-08 -9.868416e-27)
(5.789713e-05 1.870603e-07 2.103775e-26)
(5.578474e-05 -3.85579e-08 2.823173e-27)
(5.802579e-05 -7.194537e-08 -1.418645e-26)
(5.699268e-05 -6.067185e-08 2.073989e-26)
(5.830146e-05 -1.547466e-07 -1.226489e-26)
(5.959471e-05 -2.981944e-08 0)
(6.034636e-05 -1.005499e-07 -4.463698e-27)
(6.128661e-05 -8.958698e-08 4.4722e-27)
(6.286675e-05 -2.933606e-07 1.171721e-28)
(6.595856e-05 -2.52673e-07 -5.679302e-27)
(6.852256e-05 -2.376114e-07 2.647435e-27)
(6.950748e-05 -3.277046e-08 9.595771e-27)
(6.993094e-05 -3.644958e-07 -1.206571e-26)
(7.562502e-05 -1.108296e-06 0)
(9.211239e-05 -5.141645e-07 4.616997e-26)
(8.36929e-05 -3.160997e-06 0)
(0.0001676268 -8.706142e-06 -1.029419e-24)
(0.0001288128 -0.000116372 -3.923607e-23)
(6.057175e-05 -5.517016e-05 -2.010248e-25)
(6.240943e-05 -6.167863e-05 0)
(5.384399e-05 -5.280598e-05 0)
(5.041964e-05 -4.982287e-05 -6.797837e-24)
(4.691211e-05 -4.646245e-05 -1.263569e-23)
(4.663381e-05 -4.646376e-05 -6.197801e-24)
(4.49613e-05 -4.440964e-05 9.723849e-26)
(4.173856e-05 -4.143096e-05 5.944139e-24)
(4.239643e-05 -4.245001e-05 0)
(4.11275e-05 -4.062552e-05 0)
(3.863592e-05 -3.820254e-05 0)
(3.702315e-05 -3.699555e-05 0)
(3.780444e-05 -3.791235e-05 9.019826e-26)
(3.775257e-05 -3.755028e-05 5.942448e-24)
(3.604712e-05 -3.58038e-05 0)
(3.51536e-05 -3.505409e-05 0)
(3.513828e-05 -3.513894e-05 0)
(3.4429e-05 -3.440171e-05 0)
(3.4596e-05 -3.443627e-05 -9.328443e-26)
(3.460086e-05 -3.468659e-05 1.912608e-25)
(3.440199e-05 -3.434703e-05 -6.557127e-24)
(3.487975e-05 -3.5001e-05 -6.057961e-24)
(3.515613e-05 -3.506094e-05 0)
(3.410436e-05 -3.396458e-05 6.534787e-24)
(3.400856e-05 -3.400752e-05 -1.062332e-25)
(3.379623e-05 -3.380291e-05 -6.982134e-24)
(3.395912e-05 -3.40333e-05 5.335937e-26)
(3.49366e-05 -3.515807e-05 7.260592e-24)
(3.534497e-05 -3.533539e-05 -1.557721e-23)
(3.53941e-05 -3.544919e-05 6.379293e-26)
(3.568383e-05 -3.582842e-05 -8.522068e-24)
(3.618532e-05 -3.646864e-05 -5.265355e-26)
(3.872862e-05 -3.912697e-05 3.599957e-26)
(3.671949e-05 -3.293773e-05 2.555754e-23)
(3.606019e-05 3.209206e-05 1.307599e-23)
(3.85791e-05 3.896307e-05 9.625216e-24)
(3.588373e-05 3.616724e-05 -9.287126e-24)
(3.546581e-05 3.56022e-05 -1.355271e-25)
(3.518808e-05 3.524202e-05 7.987344e-24)
(3.513386e-05 3.512109e-05 -7.798576e-24)
(3.478409e-05 3.499053e-05 -7.32945e-24)
(3.386727e-05 3.393483e-05 7.156219e-24)
(3.372338e-05 3.372226e-05 7.064931e-24)
(3.398571e-05 3.397379e-05 6.81369e-24)
(3.414011e-05 3.39858e-05 -6.626556e-24)
(3.527192e-05 3.51635e-05 1.013506e-25)
(3.503515e-05 3.514746e-05 -1.245713e-23)
(3.461854e-05 3.454359e-05 9.965988e-26)
(3.493727e-05 3.500582e-05 -5.994098e-24)
(3.49701e-05 3.479559e-05 -1.142797e-25)
(3.492196e-05 3.487852e-05 2.022422e-27)
(3.559896e-05 3.562319e-05 9.311986e-26)
(3.545409e-05 3.537897e-05 0)
(3.625867e-05 3.60356e-05 -6.104681e-24)
(3.787729e-05 3.76882e-05 5.834719e-24)
(3.790134e-05 3.801218e-05 8.987042e-26)
(3.712534e-05 3.709504e-05 -9.399748e-26)
(3.875825e-05 3.832274e-05 1.212993e-23)
(4.12433e-05 4.074457e-05 -9.246168e-26)
(4.248373e-05 4.254573e-05 -5.35968e-24)
(4.176727e-05 4.147245e-05 -5.989247e-24)
(4.491484e-05 4.439813e-05 -6.207386e-24)
(4.630828e-05 4.618506e-05 9.624246e-26)
(4.647597e-05 4.607904e-05 -6.496427e-24)
(4.948096e-05 4.890351e-05 6.855744e-24)
(5.284373e-05 5.163797e-05 -6.840155e-24)
(6.41781e-05 6.317763e-05 -1.277905e-25)
(5.994455e-05 5.530613e-05 8.053632e-24)
(0.0001265696 0.0001135142 -2.011062e-23)
(5.343118e-05 4.390528e-05 1.562392e-23)
(5.766733e-05 5.796495e-05 -1.139413e-23)
(5.510645e-05 5.567576e-05 1.105767e-23)
(5.441828e-05 5.474426e-05 1.0217e-23)
(5.415431e-05 5.427061e-05 -9.334247e-24)
(5.412609e-05 5.409546e-05 0)
(5.359287e-05 5.405467e-05 0)
(5.226735e-05 5.244435e-05 -8.465887e-24)
(5.201752e-05 5.202017e-05 -1.289763e-25)
(5.240266e-05 5.23751e-05 -7.913605e-24)
(5.272796e-05 5.235702e-05 1.561923e-23)
(5.439794e-05 5.413992e-05 -1.197789e-25)
(5.405333e-05 5.428953e-05 1.015491e-25)
(5.343889e-05 5.327992e-05 0)
(5.387989e-05 5.401e-05 -1.253447e-25)
(5.412178e-05 5.371451e-05 -1.434951e-23)
(5.386423e-05 5.376095e-05 0)
(5.495637e-05 5.499544e-05 6.971367e-24)
(5.484801e-05 5.466055e-05 1.112169e-25)
(5.608443e-05 5.558091e-05 7.213145e-24)
(5.831289e-05 5.786602e-05 0)
(5.849925e-05 5.869228e-05 -6.287866e-24)
(5.754901e-05 5.746692e-05 -1.049242e-25)
(6.012934e-05 5.910643e-05 -7.093191e-24)
(6.371814e-05 6.254655e-05 -1.088632e-25)
(6.554247e-05 6.561477e-05 1.143442e-25)
(6.488433e-05 6.414652e-05 1.112936e-25)
(6.96911e-05 6.846814e-05 -7.473316e-24)
(7.172345e-05 7.13745e-05 0)
(7.227252e-05 7.12597e-05 4.609788e-26)
(7.720398e-05 7.577521e-05 -7.984074e-24)
(8.348149e-05 8.04848e-05 -7.659545e-26)
(9.93049e-05 9.659447e-05 -1.05076e-23)
(9.955437e-05 8.818991e-05 -4.540801e-24)
(0.0001920099 0.0001638314 2.359245e-23)
(0.0001949113 -0.000168082 2.277828e-23)
(0.0001007637 -8.779194e-05 -2.234134e-25)
(9.697409e-05 -9.478132e-05 1.385e-25)
(8.452837e-05 -8.191806e-05 -1.323288e-26)
(7.848523e-05 -7.704903e-05 -8.00243e-26)
(7.296638e-05 -7.182617e-05 1.629883e-25)
(7.221821e-05 -7.175886e-05 -7.174256e-24)
(6.978275e-05 -6.847754e-05 -1.131797e-25)
(6.485151e-05 -6.408237e-05 2.172908e-25)
(6.541693e-05 -6.546868e-05 -2.134379e-25)
(6.354653e-05 -6.236703e-05 -4.9871e-27)
(5.994512e-05 -5.892659e-05 7.198162e-24)
(5.739161e-05 -5.731512e-05 1.052576e-25)
(5.835005e-05 -5.853549e-05 -2.117588e-25)
(5.812458e-05 -5.764604e-05 -7.020074e-24)
(5.577087e-05 -5.521883e-05 7.226591e-24)
(5.439724e-05 -5.415102e-05 7.105122e-24)
(5.427188e-05 -5.425733e-05 -1.096239e-25)
(5.311372e-05 -5.304659e-05 1.105567e-25)
(5.354351e-05 -5.317373e-05 7.066265e-24)
(5.337014e-05 -5.354225e-05 -2.217658e-27)
(5.310506e-05 -5.299287e-05 -1.726102e-27)
(5.38149e-05 -5.40734e-05 7.265218e-24)
(5.422175e-05 -5.3996e-05 -1.221182e-25)
(5.267293e-05 -5.23369e-05 -7.709292e-24)
(5.243861e-05 -5.243698e-05 1.217893e-25)
(5.212817e-05 -5.214942e-05 8.102599e-24)
(5.241102e-05 -5.260558e-05 -2.925283e-27)
(5.382763e-05 -5.432397e-05 -8.365925e-24)
(5.444893e-05 -5.442585e-05 9.335511e-24)
(5.447163e-05 -5.459226e-05 -1.433579e-25)
(5.476135e-05 -5.510688e-05 -1.011834e-23)
(5.556093e-05 -5.6134e-05 -1.085187e-23)
(5.79649e-05 -5.832226e-05 -1.151758e-23)
(5.434078e-05 -4.521131e-05 1.521829e-23)
(0.0001988782 2.287136e-05 2.509265e-24)
(9.909954e-05 5.273715e-06 1.583074e-25)
(0.0001121257 5.614122e-07 -1.724302e-26)
(0.0001015375 9.48941e-07 1.740632e-26)
(9.721934e-05 8.877701e-07 4.696256e-29)
(9.198165e-05 2.754096e-07 0)
(9.166819e-05 1.808677e-07 0)
(9.090329e-05 6.567812e-08 1.634121e-27)
(8.984612e-05 4.23526e-07 9.798816e-28)
(8.656285e-05 -5.692809e-08 -1.667085e-26)
(8.969237e-05 -1.628827e-07 1.615427e-26)
(8.828459e-05 -1.573196e-07 -1.53105e-26)
(9.011036e-05 -3.518049e-07 9.216687e-27)
(9.211809e-05 -1.066231e-07 -1.712399e-26)
(9.347076e-05 -2.361004e-07 0)
(9.496356e-05 -2.366878e-07 -2.519512e-27)
(9.723215e-05 -6.811955e-07 1.958831e-27)
(0.0001019695 -6.301712e-07 -6.339245e-27)
(0.000106012 -5.846654e-07 -6.60218e-27)
(0.0001077596 -1.418987e-07 2.692748e-26)
(0.0001087193 -9.632764e-07 -4.78604e-26)
(0.0001186029 -2.601433e-06 7.791246e-26)
(0.0001419517 -1.515076e-06 -9.884297e-26)
(0.0001356886 -7.733161e-06 -3.152766e-27)
(0.0002484689 -1.870442e-05 1.218539e-24)
(3.046771e-05 -0.0001238529 -8.810867e-24)
(6.041662e-06 -6.25111e-06 -1.201711e-24)
(-1.711123e-07 -2.030111e-05 -1.164681e-25)
(7.277035e-07 -1.154257e-05 3.815668e-25)
(3.421648e-07 -9.103219e-06 -7.363336e-25)
(3.01562e-07 -6.633685e-06 3.544738e-25)
(2.891941e-07 -4.9019e-06 3.158639e-25)
(1.939201e-07 -3.003635e-06 -3.163464e-25)
(6.599359e-09 -2.514487e-06 0)
(1.042224e-07 -2.320669e-06 1.123226e-27)
(8.569915e-08 -1.362406e-06 0)
(3.443414e-08 -1.121903e-06 0)
(3.448558e-08 -9.10928e-07 1.306509e-25)
(5.086358e-08 -5.700043e-07 -1.307134e-25)
(1.963128e-08 -3.117526e-07 0)
(8.639138e-09 -2.584858e-07 -6.21373e-26)
(8.024009e-09 -1.580273e-07 7.778159e-28)
(9.079803e-09 -1.25382e-07 6.0601e-26)
(1.850218e-08 -8.459543e-09 -2.994908e-26)
(1.01594e-08 1.175369e-07 0)
(-7.568529e-10 1.237086e-07 2.955612e-26)
(7.901405e-09 1.577365e-07 -2.960908e-26)
(-5.489173e-09 2.058243e-07 -1.468523e-26)
(-1.046587e-08 1.409574e-07 1.102482e-26)
(-1.157669e-08 9.491776e-08 -3.783116e-27)
(-1.253951e-08 3.102035e-08 -1.286123e-26)
(-1.004964e-08 -3.981335e-08 1.83575e-26)
(-6.564973e-09 -6.154466e-08 0)
(-5.077677e-09 -1.021052e-07 -4.450089e-26)
(-1.785868e-10 -8.82707e-08 2.963664e-26)
(-3.466609e-09 -9.916933e-08 1.493507e-26)
(2.087599e-08 -7.166574e-08 9.081271e-26)
(1.334334e-08 1.439051e-07 -1.830503e-25)
(1.520968e-08 1.41906e-07 -6.30876e-26)
(3.806141e-08 4.213211e-07 6.50437e-26)
(-1.163741e-09 5.665804e-07 -1.008837e-27)
(-4.671914e-10 5.257437e-07 -1.033672e-27)
(2.377529e-08 6.143735e-07 -1.376457e-25)
(7.091022e-08 9.289727e-07 -8.764307e-28)
(8.600965e-08 1.468275e-06 1.416117e-25)
(1.122159e-07 2.19345e-06 0)
(1.583515e-07 2.84492e-06 0)
(2.811114e-07 4.667545e-06 0)
(2.641252e-07 5.992267e-06 2.648205e-27)
(4.056188e-07 9.026945e-06 0)
(6.042776e-07 1.056972e-05 -3.045996e-27)
(1.619237e-07 2.079609e-05 4.392498e-25)
(5.351565e-06 5.893725e-06 -1.230136e-24)
(3.062458e-05 0.0001202658 9.042566e-24)
(0.0002575827 1.864785e-05 0)
(0.0001326438 9.00694e-06 -4.215807e-27)
(0.0001391658 1.334544e-06 2.262918e-26)
(0.0001162632 1.975578e-06 0)
(0.0001136278 5.808376e-07 -1.309786e-26)
(0.000107994 1.195885e-06 8.400308e-27)
(0.0001017202 3.271636e-07 5.749579e-27)
(0.0001021788 5.753115e-07 -7.35736e-27)
(9.5574e-05 7.461169e-07 0)
(9.333487e-05 3.276918e-08 0)
(9.366594e-05 2.423295e-07 -1.074979e-26)
(9.106725e-05 3.894121e-07 1.071604e-26)
(8.768023e-05 2.487379e-07 0)
(8.851751e-05 -2.391958e-07 -2.403285e-26)
(9.158796e-05 -8.130469e-08 0)
(9.005839e-05 1.826487e-07 -2.540813e-26)
(8.893262e-05 1.149717e-07 2.538861e-26)
(8.902111e-05 -3.265506e-07 1.908279e-27)
(9.364109e-05 -5.19383e-07 -2.01581e-26)
(9.453986e-05 -1.155488e-07 5.087252e-26)
(9.718133e-05 -6.321993e-07 -3.068549e-26)
(0.0001011547 -1.039148e-06 0)
(0.0001125409 -2.56308e-07 1.037335e-26)
(9.600666e-05 -5.080774e-06 -3.169297e-25)
(0.0001962869 -2.30707e-05 4.615133e-24)
(0.0003498422 3.403028e-05 -1.095619e-24)
(0.0001984952 1.771499e-05 9.238457e-26)
(0.0001984044 3.48552e-06 -9.86582e-26)
(0.0001676812 3.901772e-06 -8.389488e-26)
(0.0001625058 1.305282e-06 4.581744e-26)
(0.0001546233 2.422418e-06 0)
(0.0001455756 7.669071e-07 0)
(0.0001455054 1.151679e-06 -3.590768e-27)
(0.0001366505 1.529777e-06 4.450562e-27)
(0.0001329675 1.32339e-07 -1.819096e-26)
(0.0001335736 4.65478e-07 1.260054e-26)
(0.0001299466 7.444646e-07 0)
(0.0001255039 4.635962e-07 -2.522135e-26)
(0.0001267722 -4.498398e-07 6.047593e-26)
(0.0001307338 -1.213041e-07 -3.253886e-26)
(0.0001286352 3.926995e-07 0)
(0.0001268812 1.9115e-07 0)
(0.0001275966 -7.259102e-07 -1.789391e-27)
(0.0001340758 -1.062698e-06 -2.522968e-27)
(0.0001356353 -3.182505e-07 3.623502e-26)
(0.000139903 -1.423063e-06 -1.575511e-26)
(0.0001466149 -2.035488e-06 -4.094013e-26)
(0.0001605192 -1.423016e-06 3.807798e-26)
(0.000150174 -1.171969e-05 6.47335e-25)
(0.0002639851 -4.116593e-05 -1.180233e-24)
(5.576837e-05 -0.0001682508 -9.585275e-24)
(1.437113e-05 -2.826157e-05 0)
(1.04082e-06 -3.12332e-05 4.049903e-25)
(1.518791e-06 -1.956864e-05 8.974179e-25)
(8.50817e-07 -1.477213e-05 -9.006318e-25)
(6.779406e-07 -1.070565e-05 3.79026e-25)
(6.14053e-07 -7.984967e-06 -3.982951e-25)
(4.354196e-07 -5.188793e-06 3.537115e-25)
(6.022212e-08 -4.18226e-06 -3.43457e-25)
(2.19259e-07 -3.754124e-06 0)
(1.854141e-07 -2.378543e-06 0)
(8.270384e-08 -1.947676e-06 0)
(7.915161e-08 -1.589859e-06 -4.82779e-27)
(1.07944e-07 -1.056198e-06 0)
(4.688928e-08 -6.683534e-07 -4.652903e-27)
(2.40671e-08 -5.405722e-07 -1.45688e-25)
(1.958658e-08 -3.688969e-07 4.311571e-25)
(2.218744e-08 -3.007129e-07 0)
(3.986283e-08 -1.10492e-07 -3.485564e-26)
(2.328723e-08 7.536193e-08 1.051697e-25)
(1.620405e-09 1.089988e-07 0)
(1.741271e-08 1.684154e-07 -1.733975e-26)
(-7.828537e-09 2.497907e-07 0)
(-1.824509e-08 1.835684e-07 1.291463e-26)
(-2.087945e-08 1.336913e-07 -8.475223e-27)
(-2.293293e-08 6.12013e-08 4.3056e-27)
(-1.775992e-08 -2.331702e-08 -2.594364e-26)
(-1.068149e-08 -3.609388e-08 3.45236e-26)
(-7.573922e-09 -7.48405e-08 8.707139e-26)
(2.402581e-09 -4.209254e-08 -1.396359e-25)
(-2.735828e-09 -2.996032e-08 -7.179813e-28)
(4.422715e-08 2.600608e-08 7.035493e-26)
(3.136114e-08 3.407595e-07 -1.442046e-25)
(3.853517e-08 3.935904e-07 1.45551e-25)
(7.963249e-08 8.129802e-07 1.48072e-25)
(4.762026e-09 1.040686e-06 -1.479548e-25)
(1.056751e-08 1.050933e-06 2.42049e-27)
(6.040971e-08 1.252768e-06 0)