/*--------------------------------*- C++ -*----------------------------------*\
| =========                 |                                                 |
| \\      /  F ield         | OpenFOAM: The Open Source CFD Toolbox           |
|  \\    /   O peration     | Version:  2406                                  |
|   \\  /    A nd           | Website:  www.openfoam.com                      |
|    \\/     M anipulation  |                                                 |
\*---------------------------------------------------------------------------*/
FoamFile
{
    version     2.0;
    format      ascii;
    arch        "LSB;label=32;scalar=64";
    class       surfaceScalarField;
    location    "0.78";
    object      phi;
}
// * * * * * * * * * * * * * * * * * * * * * * * * * * * * * * * * * * * * * //

dimensions      [0 3 -1 0 0 0 0];

oriented        oriented;

internalField   nonuniform List<scalar> 
23794
(
-0.0005830183
-0.002263118
0.002846136
0.0003917986
-0.000974817
0.002994192
-0.002602393
0.000192777
0.002801415
-0.003897861
0.004090638
-0.00313176
-0.0007661015
0.0005253313
-0.003657091
0.001890623
-0.001365292
6.701431e-05
0.001823609
-0.002373747
0.002440761
-0.003461589
0.001087842
-0.002262603
-0.001198986
-0.001026971
-0.001235632
0.0004550965
-0.001482068
0.0009861433
-0.0005310468
-0.000202997
0.00118914
-0.001872683
0.001669686
-0.002280987
0.0004083032
-0.001614078
-0.0006669091
0.0004093007
-0.002023378
0.002528807
-0.002119507
0.004395959
-0.001867152
0.006362684
-0.001966725
0.0083511
-0.001988415
0.01044684
-0.00209574
0.009705198
0.0007416417
0.0009417859
0.008763412
-0.006173617
0.007115403
-0.003681221
-0.002492396
3.367992e-05
-0.003714901
0.00242044
-0.00238676
0.004993522
-0.002573082
0.008776017
-0.003782495
0.009920895
-0.001144878
0.005200412
0.004720483
0.000719164
0.004481248
-0.0004980928
0.001217257
-0.003246688
0.002748596
-0.008237309
0.004990621
-0.01166355
0.003426237
-0.01347436
0.00181081
-0.01448792
0.001013562
-0.01513453
0.0006466148
-0.01557265
0.0004381176
-0.01587572
0.0003030677
-0.01598372
0.0001079985
-0.01599602
1.230249e-05
-0.01596
-3.601405e-05
-0.01587611
-8.389263e-05
-0.01577761
-9.850384e-05
-0.01561978
-0.0001578314
-0.01542108
-0.0001986975
-0.0151632
-0.0002578776
-0.01488189
-0.0002813117
-0.01458384
-0.0002980466
-0.01423026
-0.0003535844
-0.01385687
-0.000373392
-0.01347631
-0.0003805543
-0.01302877
-0.0004475476
-0.01255789
-0.0004708731
-0.0120608
-0.0004970918
-0.01155723
-0.0005035674
-0.01103198
-0.0005252513
-0.01045443
-0.0005775561
-0.009884863
-0.0005695629
-0.009272909
-0.0006119537
-0.008641441
-0.0006314675
-0.008005468
-0.0006359731
-0.007360527
-0.0006449413
-0.00668153
-0.0006789975
-0.00600081
-0.0006807193
-0.005312305
-0.0006885055
-0.00460992
-0.0007023848
-0.003909534
-0.000700386
-0.00322057
-0.0006889639
-0.002486104
-0.0007344663
-0.001751837
-0.0007342663
-0.0009964439
-0.0007553936
-0.0001806358
-0.0008158082
0.0005544556
-0.0007350914
0.001242619
-0.000688163
0.001942514
-0.0006998955
0.002640248
-0.0006977337
0.00332398
-0.0006837325
0.004008514
-0.0006845334
0.004672947
-0.0006644332
0.00534706
-0.0006741131
0.005998653
-0.0006515935
0.006614346
-0.0006156923
0.007230866
-0.00061652
0.007831124
-0.0006002584
0.00840588
-0.0005747561
0.00897383
-0.0005679501
0.009523236
-0.0005494053
0.01001663
-0.0004933935
0.01050108
-0.0004844482
0.0109665
-0.000465426
0.01138808
-0.0004215743
0.01180563
-0.0004175543
0.01216881
-0.0003631758
0.01250063
-0.0003318224
0.01279054
-0.0002899136
0.01303498
-0.0002444391
0.01326847
-0.0002334873
0.0134606
-0.0001921278
0.01360862
-0.0001480255
0.01370836
-9.973651e-05
0.01376073
-5.236836e-05
0.01375386
6.863937e-06
0.01363359
0.0001202734
0.01342169
0.0002119011
0.01303185
0.0003898365
0.01226883
0.0007630197
0.01083
0.001438835
0.008074698
0.002755302
0.003731111
0.004343586
-0.0002485958
0.003979707
-0.0005830646
0.0003344688
0.001582146
-0.00216521
0.001567596
1.455034e-05
-0.003834652
0.005402248
-0.009087317
0.005252665
-0.008735412
-0.0003519042
-0.005719815
-0.003015598
-0.00347665
-0.002243165
-0.002423032
-0.001053618
-0.001666958
-0.0007560735
0.0001486033
-0.001815562
0.002581229
-0.002432626
0.003412547
-0.0008313175
0.001795188
0.001617359
-0.0006117099
0.002406898
-0.002531922
0.001920212
-0.002641157
0.0001092353
-0.00204928
-0.0005918772
-0.001659667
-0.0003896134
-0.001147908
-0.000511759
-0.0004042558
-0.0007436518
0.0004828076
-0.0008870633
0.001178123
-0.0006953155
0.001472653
-0.0002945297
0.001285167
0.0001874856
0.0009911329
0.0002940344
0.0008091846
0.0001819484
0.0007672062
4.197843e-05
0.0008981174
-0.0001309112
0.001164723
-0.0002666054
0.001646555
-0.0004818322
0.002311639
-0.000665084
0.003074949
-0.00076331
0.003874192
-0.0007992435
0.004672026
-0.0007978336
0.005383807
-0.0007117811
0.005955596
-0.0005717883
0.006146587
-0.0001909915
0.005126675
0.001019912
0.002863557
0.003428071
-0.007099273
0.006517338
0.001540195
0.0009130588
0.001962932
-0.00302513
-0.001753025
0.006517372
-0.006105942
0.008443555
-0.004420052
-0.002451991
-0.0002881117
-0.007789032
0.00242778
-0.004081183
-0.0004236435
0.004675032
-0.004259525
0.006276643
-0.004596588
0.001424905
-0.002768371
-0.003027203
-0.001243914
-0.002760089
0.0005661496
-0.003292131
0.001634286
-0.001599183
0.0003189123
0.002504514
-0.002874929
0.004863527
-0.004190038
0.001723413
-0.002560891
-0.002296056
0.0004310608
-0.00501533
0.002911991
-0.004600437
0.00499322
-0.00394838
0.007212233
-0.004185738
0.009475935
-0.004252118
0.01155211
-0.004171914
0.0127399
-0.0004461466
0.004488789
0.01701452
-0.006303002
0.01790719
-0.006287857
-0.002507541
-0.003369643
-0.006633115
-0.002235516
-0.003520887
-0.0002111575
-0.004597441
0.003005249
-0.006998901
0.006854287
-0.004993916
0.006218588
0.005356183
-0.000180083
0.01087992
-0.009307862
0.01034504
-0.0168394
0.01028014
-0.02097165
0.009122871
-0.02257364
0.005028221
-0.02296117
0.002198345
-0.0230661
0.001118495
-0.02306474
0.0006452459
-0.02300954
0.0003829233
-0.02292242
0.0002159449
-0.02272716
-8.725763e-05
-0.02251903
-0.0001958306
-0.02229972
-0.0002553262
-0.0220321
-0.0003515133
-0.02175105
-0.000379547
-0.02140863
-0.0005002555
-0.02102611
-0.0005812179
-0.02057961
-0.000704381
-0.02010856
-0.0007523538
-0.01962704
-0.0007795664
-0.01908569
-0.0008949397
-0.01852009
-0.0009389863
-0.01795185
-0.0009487974
-0.01730666
-0.001092742
-0.01663947
-0.001138057
-0.01594213
-0.001194434
-0.01523679
-0.001208905
-0.01451275
-0.001249289
-0.01372641
-0.001363905
-0.0129518
-0.00134417
-0.01213251
-0.001431243
-0.01128874
-0.001475239
-0.01044338
-0.001481333
-0.009592525
-0.001495794
-0.008700301
-0.001571221
-0.007805086
-0.001575934
-0.006903756
-0.001589835
-0.005986852
-0.001619289
-0.005074342
-0.001612896
-0.00417415
-0.001589156
-0.003223875
-0.001684742
-0.002269185
-0.001688956
-0.001290086
-0.001734493
-0.0002461
-0.001859794
0.0007047093
-0.001685901
0.001603959
-0.001587412
0.002513498
-0.001609435
0.003420871
-0.001605107
0.004314931
-0.001577792
0.005211134
-0.001580736
0.006084499
-0.001537799
0.00696914
-0.001558753
0.007829116
-0.00151157
0.008645987
-0.001432563
0.009465976
-0.00143651
0.01027125
-0.001405528
0.01104517
-0.001348681
0.01181172
-0.001334499
0.01256198
-0.001299661
0.01324644
-0.001177862
0.01392461
-0.001162617
0.01458173
-0.001122544
0.01518992
-0.001029763
0.01579574
-0.001023375
0.01633828
-0.0009057118
0.0168529
-0.0008464427
0.01732106
-0.0007580744
0.01773964
-0.0006630173
0.0181531
-0.0006469496
0.01852327
-0.0005622997
0.0188461
-0.0004708599
0.01912134
-0.0003749735
0.01934583
-0.0002768611
0.01954557
-0.0001928678
0.01970145
-3.561261e-05
0.01986003
5.332625e-05
0.0199864
0.000263461
0.01998073
0.0007686869
0.01977876
0.001640809
0.01878969
0.003744375
0.01565524
0.007478031
0.01140475
0.008230202
0.007166909
0.004572308
0.003844963
0.001156735
-0.0003398138
0.004199327
-0.006221046
0.01128348
-0.009090366
0.008121985
-0.007007914
-0.002434356
-0.003871593
-0.006151919
-0.00170901
-0.004405748
-0.0009837539
-0.001778874
-0.0004766199
-0.001263207
0.0009369806
-0.003229162
0.003661685
-0.005157331
0.004369919
-0.001539551
0.001297316
0.004689962
-0.001992467
0.00569668
-0.003698467
0.003626212
-0.003271326
-0.0003179056
-0.002076308
-0.001786896
-0.001060298
-0.001405623
-0.0005802151
-0.0009918415
-0.0001554216
-0.001168445
0.0006919235
-0.001734408
0.001562703
-0.001566095
0.002168934
-0.0009007601
0.002244877
0.0001115421
0.001960674
0.0005782381
0.001622862
0.0005197597
0.001458478
0.0002063632
0.001555218
-0.0002276513
0.00184385
-0.000555238
0.002401433
-0.001039415
0.003189537
-0.001453187
0.00411712
-0.001690893
0.005107789
-0.001789912
0.006115987
-0.001806032
0.007062708
-0.001658502
0.007812329
-0.001321409
0.008426803
-0.0008054656
0.008783475
0.0006632404
0.004547759
0.008142587
-0.01035258
0.008727327
0.004085861
0.004969785
0.0007653029
0.0002954289
-0.004002203
0.01128488
-0.007915495
0.01235685
-0.005975595
-0.004391892
-0.001385949
-0.01237868
0.00197483
-0.007441962
-0.001315532
0.007965394
-0.005433532
0.01039464
-0.005371917
0.00136329
-0.003384425
-0.005014695
-0.001495404
-0.004649109
0.0006628929
-0.005450429
0.001928249
-0.002864539
0.0009020414
0.003530722
-0.002907111
0.008672679
-0.005198436
0.004014738
-0.003152023
-0.00434247
0.0002612119
-0.008428565
0.002782865
-0.00712209
0.004885986
-0.006051501
0.007213724
-0.006513477
0.009659874
-0.006698268
0.0121002
-0.00661224
0.01369532
-0.002041266
0.006686798
0.02402304
-0.005171524
0.02976552
-0.009551198
0.001872133
-0.009873369
-0.006310944
-0.01041272
-0.00298154
-0.009046905
-0.005963252
-0.005347262
-0.01069854
-0.0007304305
-0.009610747
0.0009013324
0.00372442
-0.008958277
0.02073953
-0.02123068
0.02261744
-0.0264085
0.01545795
-0.02701194
0.00972631
-0.02685409
0.00487037
-0.02688652
0.002230776
-0.02699298
0.001224959
-0.02707029
0.0007225513
-0.02709794
0.0004105774
-0.0270865
0.0002045015
-0.0269164
-0.0002573577
-0.02669682
-0.0004154103
-0.02645029
-0.0005018526
-0.0261457
-0.0006561033
-0.02582726
-0.0006979933
-0.02543206
-0.0008954485
-0.02498986
-0.001023417
-0.02446933
-0.001224911
-0.02391859
-0.001303095
-0.02335714
-0.001341018
-0.02272047
-0.001531609
-0.02205435
-0.001605109
-0.02138685
-0.001616299
-0.02062363
-0.001855954
-0.01983418
-0.001927506
-0.01900806
-0.002020555
-0.01817198
-0.002044989
-0.01731337
-0.002107895
-0.01637743
-0.002299852
-0.01545728
-0.00226432
-0.01448106
-0.002407465
-0.01347547
-0.00248083
-0.01246735
-0.002489452
-0.01145242
-0.002510724
-0.01038742
-0.00263622
-0.009318973
-0.00264438
-0.008242683
-0.002666125
-0.007148659
-0.002713313
-0.006059411
-0.002702143
-0.004985698
-0.00266287
-0.003854124
-0.002816316
-0.002716031
-0.002827049
-0.001549743
-0.002900781
-0.0003123047
-0.003097232
0.0008216399
-0.002819845
0.001902411
-0.002668183
0.002995212
-0.002702236
0.004084819
-0.002694714
0.005157549
-0.002650522
0.006230964
-0.002654151
0.007275798
-0.002582633
0.008333516
-0.002616471
0.009360477
-0.002538531
0.0103354
-0.002407486
0.0113136
-0.002414714
0.01227295
-0.002364872
0.01319424
-0.002269974
0.01410693
-0.002247187
0.01499891
-0.002191644
0.01581102
-0.001989972
0.01661613
-0.001967724
0.01739527
-0.001901679
0.01811443
-0.001748926
0.01883265
-0.001741601
0.01947273
-0.001545788
0.02008039
-0.001454104
0.02063148
-0.00130916
0.02112142
-0.001152962
0.0216067
-0.001132228
0.02203871
-0.0009943112
0.02241521
-0.0008473528
0.02273358
-0.0006933516
0.02299365
-0.0005369298
0.02320911
-0.0004083243
0.02334077
-0.000167276
0.02345234
-5.824525e-05
0.02350856
0.0002072495
0.02344464
0.0008325997
0.02339614
0.001689312
0.02363373
0.00350678
0.02354392
0.007567848
0.02207202
0.009702098
0.01863313
0.008011204
0.0115245
0.008265363
0.002077513
0.01364631
-0.004200522
0.01756151
-0.00574883
0.009670293
-0.003504881
-0.004678304
-1.39031e-05
-0.009642897
0.002547235
-0.006966886
0.003032836
-0.002264474
0.002490123
-0.0007204945
0.002725973
-0.003465013
0.004240453
-0.006671811
0.003893061
-0.001192158
0.0002582812
0.008324741
-0.002857541
0.008812502
-0.004692834
0.005461506
-0.004266364
-0.000744376
-0.002815716
-0.003237544
-0.001353232
-0.002868107
-0.0005597678
-0.001785305
-0.0001228309
-0.001605382
0.0007721052
-0.002629344
0.001791211
-0.002585202
0.002549977
-0.001659526
0.002728379
-6.685974e-05
0.002480184
0.0008264332
0.002079982
0.0009199614
0.001822944
0.0004634018
0.001869338
-0.0002740457
0.002147733
-0.0008336325
0.002746805
-0.001638487
0.003628114
-0.002334496
0.004697609
-0.002760389
0.005859288
-0.002951591
0.00705558
-0.003002324
0.008172198
-0.00277512
0.009112797
-0.002262009
0.009695852
-0.001388521
0.01029701
6.207865e-05
0.004492197
0.0116608
-0.01240315
0.009469671
0.00694756
0.009683027
0.0004957864
0.006747202
-0.005593758
0.01737442
-0.009326663
0.01608975
-0.007613899
-0.006104656
-0.003084369
-0.01690821
0.0005362166
-0.01106255
-0.002716209
0.01121782
-0.00662717
0.0143056
-0.006230214
0.0009663334
-0.004064535
-0.007180374
-0.001777114
-0.00693653
0.0008034073
-0.00803095
0.002186137
-0.004247269
0.001599686
0.004117173
-0.002456259
0.01272863
-0.005828953
0.007387432
-0.003782674
-0.006388749
-0.0001566211
-0.01205462
0.002094753
-0.009373465
0.004061772
-0.008018519
0.006482837
-0.008934543
0.009337473
-0.009552904
0.01235184
-0.009626607
0.01370692
-0.003396344
0.007387456
0.0303425
-0.004807743
0.04196072
-0.013922
0.01098639
-0.01801384
-0.002219101
-0.02020879
-0.0007865928
-0.01978358
-0.006388457
-0.01697523
-0.01350689
-0.01300695
-0.01357903
-0.01450315
0.005220623
-0.02333977
0.02957615
-0.03124979
0.03052746
-0.03229108
0.01649925
-0.03188033
0.009315553
-0.03211513
0.005105172
-0.03247661
0.002592254
-0.03271358
0.001461926
-0.03284039
0.0008493663
-0.03286818
0.0004383699
-0.03283821
0.0001745313
-0.03260084
-0.0004947348
-0.03230821
-0.000708034
-0.03198522
-0.0008248457
-0.03159295
-0.001048369
-0.03118753
-0.001103414
-0.03069264
-0.001390343
-0.0301434
-0.001572654
-0.02950154
-0.001866771
-0.0288239
-0.001980734
-0.02813441
-0.002030511
-0.02735755
-0.002308473
-0.02654555
-0.002417108
-0.02573225
-0.002429597
-0.0248084
-0.002779801
-0.02385085
-0.002885056
-0.02285049
-0.003020921
-0.02183959
-0.003055886
-0.0208029
-0.003144582
-0.01967216
-0.00343059
-0.01856269
-0.003373793
-0.01738487
-0.003585282
-0.01617361
-0.003692097
-0.01495831
-0.003704751
-0.01373593
-0.003733104
-0.01245419
-0.003917951
-0.01116897
-0.003929606
-0.009874691
-0.003960403
-0.008561962
-0.004026043
-0.007254053
-0.004010052
-0.005969105
-0.003947818
-0.004616372
-0.004169049
-0.00325718
-0.004186241
-0.001868493
-0.004289468
-0.0004010459
-0.004564679
0.0009558496
-0.004176741
0.002263463
-0.003975797
0.003585332
-0.004024105
0.004898245
-0.004007627
0.006187983
-0.00394026
0.007476586
-0.003942754
0.008729822
-0.003835869
0.01000002
-0.003886671
0.01123047
-0.003768985
0.0124009
-0.003577907
0.01357636
-0.00359018
0.0147275
-0.003516011
0.01583618
-0.003378651
0.01693622
-0.003347229
0.01800883
-0.003264257
0.01898921
-0.002970355
0.01996216
-0.002940666
0.02090292
-0.002842448
0.02177393
-0.002619936
0.02264452
-0.002612185
0.02342219
-0.002323463
0.0241611
-0.00219301
0.02483332
-0.001981381
0.02543572
-0.001755359
0.0260324
-0.001728913
0.02656551
-0.001527417
0.02703477
-0.001316612
0.02743464
-0.001093225
0.02776909
-0.0008713819
0.02805113
-0.0006903606
0.02823514
-0.0003512881
0.02839411
-0.0002172172
0.02847096
0.0001303989
0.02833768
0.0009658833
0.02804808
0.001978916
0.02791023
0.003644628
0.02835459
0.00712349
0.02856376
0.009492922
0.02734774
0.009227226
0.02120352
0.01440958
0.009311645
0.02553819
0.0005506758
0.02632248
0.0003264249
0.009894544
0.002214376
-0.006566256
0.005879213
-0.01330773
0.008391799
-0.009479472
0.008702824
-0.002575499
0.007449752
0.0005325767
0.006081478
-0.002096738
0.005307008
-0.005897341
0.003269341
0.0008455089
-0.0003677886
0.01196187
-0.003520937
0.01196565
-0.005869606
0.007810175
-0.005511371
-0.001102611
-0.003992378
-0.004756537
-0.002260093
-0.004600392
-0.001099352
-0.002946047
-0.0004084235
-0.00229631
0.0007624074
-0.003800175
0.001988982
-0.003811776
0.002895405
-0.002565949
0.003139599
-0.0003110539
0.002898345
0.001067687
0.002441207
0.001377099
0.002100424
0.0008041843
0.002079658
-0.0002532788
0.002309386
-0.001063361
0.002938092
-0.002267193
0.003951927
-0.003348331
0.005237929
-0.004046391
0.006655159
-0.004368821
0.00811333
-0.004460494
0.009468971
-0.004130761
0.01059217
-0.003385205
0.01132032
-0.002116671
0.01176313
-0.0003807307
0.003852178
0.01422322
-0.01422542
0.009471878
0.009821453
0.01408479
0.001222035
0.01534662
-0.006282556
0.02487901
-0.01010866
0.01991586
-0.008887342
-0.007325973
-0.004956641
-0.02083891
-0.001929992
-0.0140892
-0.004937372
0.0142252
-0.008010085
0.01737832
-0.007221701
0.0001779486
-0.00476476
-0.009637314
-0.002028057
-0.009673233
0.00106702
-0.01112603
0.002603012
-0.005783261
0.002386313
0.004333872
-0.001711399
0.01682634
-0.006079099
0.01175513
-0.004430209
-0.00803764
-0.001048212
-0.01543661
0.000657466
-0.01107914
0.002435416
-0.009796469
0.005139034
-0.01163816
0.008620324
-0.01303419
0.01196113
-0.01296741
0.01300783
-0.004443043
0.006790241
0.03656009
-0.006119124
0.05487008
-0.01958496
0.02445223
-0.02707335
0.005269286
-0.03071712
0.002857174
-0.03202375
-0.005081825
-0.03227859
-0.01325206
-0.03241579
-0.01344183
-0.0345984
0.007403231
-0.03776088
0.03273863
-0.03852978
0.03129636
-0.03759276
0.01556223
-0.037724
0.009446796
-0.03819638
0.00557755
-0.03859987
0.002995749
-0.03887921
0.001741259
-0.03905871
0.001028865
-0.03911818
0.0004978445
-0.03911874
0.0001750907
-0.03886112
-0.0007523568
-0.03854141
-0.001027745
-0.03818279
-0.001183465
-0.03772592
-0.001505238
-0.03727151
-0.001557824
-0.03669149
-0.001970362
-0.03605277
-0.00221137
-0.03529481
-0.002624736
-0.03449493
-0.002780608
-0.03368457
-0.002840878
-0.03276043
-0.00323261
-0.03179453
-0.003383014
-0.03083107
-0.003393057
-0.02973059
-0.003880275
-0.02858619
-0.00402946
-0.02739093
-0.004216174
-0.02618542
-0.0042614
-0.02494827
-0.00438173
-0.02359103
-0.004787829
-0.02226635
-0.004698472
-0.02085258
-0.004999056
-0.01940129
-0.005143388
-0.01794206
-0.005163977
-0.01647568
-0.005199488
-0.01493396
-0.005459667
-0.01338823
-0.005475334
-0.01182927
-0.005519372
-0.01025261
-0.005602699
-0.008679844
-0.005582818
-0.007141093
-0.005486569
-0.005521634
-0.005788507
-0.003898985
-0.00580889
-0.002250173
-0.005938281
-0.0005144238
-0.006300428
0.001110805
-0.00580197
0.002698546
-0.005563538
0.004298752
-0.005624312
0.005876877
-0.005585752
0.007423649
-0.005487031
0.008968597
-0.005487703
0.01046868
-0.00533595
0.01199259
-0.005410583
0.01346242
-0.005238813
0.0148668
-0.004982289
0.01627997
-0.005003351
0.01765582
-0.004891858
0.01898582
-0.004708651
0.02031042
-0.004671834
0.02159289
-0.004546725
0.02276692
-0.004144379
0.02393411
-0.004107857
0.02505881
-0.003967148
0.02609651
-0.00365764
0.02713969
-0.003655358
0.02806528
-0.003249061
0.02894426
-0.003071984
0.02974212
-0.002779242
0.03045262
-0.002465859
0.03115938
-0.002435675
0.03178287
-0.002150902
0.03233443
-0.001868173
0.03279614
-0.001554937
0.03317833
-0.001253575
0.03350086
-0.001012883
0.03369188
-0.0005423085
0.03385691
-0.0003822493
0.03391002
7.728557e-05
0.03374677
0.00112913
0.03343244
0.002293252
0.03311252
0.003964542
0.03321998
0.007016034
0.03326952
0.009443378
0.03309007
0.009406684
0.03040888
0.01709076
0.02083055
0.03511653
0.01102085
0.03613218
0.007894523
0.01302087
0.01089681
-0.009568539
0.01456656
-0.01697748
0.01650532
-0.01141823
0.01636985
-0.002440028
0.01440312
0.002499309
0.01122282
0.001083561
0.007534033
-0.002208558
0.003390747
0.004988795
-0.0005749266
0.01592754
-0.004200774
0.0155915
-0.007323635
0.01093304
-0.00710687
-0.001319376
-0.005663107
-0.0062003
-0.003751913
-0.006511585
-0.002138287
-0.004559673
-0.0009104006
-0.003524197
0.0007058269
-0.005416403
0.002135771
-0.005241719
0.003150026
-0.003580204
0.003423993
-0.0005850206
0.003176277
0.001315404
0.002644321
0.001909055
0.002178122
0.001270383
0.002029507
-0.0001046639
0.002183815
-0.001217669
0.002930235
-0.003013613
0.004235937
-0.004654033
0.005891463
-0.005701917
0.007682954
-0.006160312
0.009492642
-0.006270183
0.01115414
-0.005792259
0.01249916
-0.004730224
0.01341313
-0.00303064
0.01373611
-0.0007037074
0.003362861
0.01662644
-0.01664165
0.009487085
0.0129301
0.01778113
0.003306215
0.0249705
-0.005570637
0.03375587
-0.009562579
0.0239078
-0.009062478
-0.007826074
-0.006786513
-0.02311487
-0.005405322
-0.01547039
-0.007822175
0.01664205
-0.009487091
0.01904323
-0.008248843
-0.001060299
-0.005374296
-0.01251186
-0.002169286
-0.01287824
0.001564112
-0.01485942
0.003209212
-0.007428361
0.003118067
0.004425017
-0.0007362056
0.02068061
-0.005894884
0.01691381
-0.005218867
-0.008713657
-0.002727169
-0.01792831
-0.001767077
-0.01203923
-0.0001394675
-0.01142408
0.003109921
-0.01488755
0.007154385
-0.01707866
0.01015044
-0.01596347
0.01080062
-0.005093222
0.004445088
0.04291563
-0.009572173
0.06888734
-0.02569865
0.04057871
-0.03477963
0.01435027
-0.03915078
0.007228323
-0.04201092
-0.002221685
-0.04496003
-0.01030295
-0.04837779
-0.01002407
-0.05036795
0.009393396
-0.04851204
0.03088272
-0.0454971
0.02828142
-0.04502505
0.01509018
-0.04565073
0.01007248
-0.04619133
0.00611815
-0.04665564
0.003460057
-0.04695191
0.002037525
-0.0471499
0.001226852
-0.04714831
0.0004962597
-0.04712529
0.0001520649
-0.04678298
-0.001094659
-0.04638315
-0.00142758
-0.04593116
-0.001635456
-0.04535193
-0.002084464
-0.04480353
-0.002106224
-0.04409021
-0.002683682
-0.04331682
-0.002984765
-0.04239551
-0.003546039
-0.04142391
-0.00375221
-0.04044864
-0.003816153
-0.03933006
-0.004351186
-0.03816473
-0.004548347
-0.03701079
-0.004546998
-0.0356876
-0.005203465
-0.03430655
-0.005410505
-0.03287122
-0.005651503
-0.0314242
-0.005708424
-0.02994303
-0.005862893
-0.02830641
-0.006424458
-0.02672506
-0.006279818
-0.02502432
-0.0066998
-0.02328321
-0.006884495
-0.02153232
-0.006914865
-0.0197747
-0.00695711
-0.01792239
-0.007311974
-0.01606724
-0.007330485
-0.01418594
-0.007400678
-0.01228898
-0.007499658
-0.01038681
-0.007484987
-0.008542238
-0.00733114
-0.006600996
-0.007729749
-0.004658727
-0.007751158
-0.002705771
-0.007891237
-0.0006553062
-0.008350894
0.001292857
-0.007750132
0.003230485
-0.007501166
0.005158386
-0.007552213
0.00705079
-0.007478155
0.008903806
-0.007340047
0.01075274
-0.007336639
0.01254666
-0.007129863
0.01437927
-0.007243195
0.01613633
-0.006995873
0.01782702
-0.00667298
0.01953412
-0.006710453
0.02117993
-0.006537672
0.02277625
-0.006304969
0.02438166
-0.00627724
0.02591769
-0.006082758
0.0273237
-0.005550385
0.02872899
-0.005513154
0.03008059
-0.005318744
0.03132222
-0.004899273
0.03258003
-0.004913168
0.03369352
-0.004362547
0.03475161
-0.004130079
0.03571089
-0.003738524
0.03657016
-0.00332513
0.0374301
-0.003295608
0.03818109
-0.002901893
0.03885859
-0.002545671
0.03941996
-0.002116309
0.03989366
-0.001727274
0.0402923
-0.001411522
0.04054741
-0.0007974267
0.04077073
-0.0006055695
0.04090038
-5.236044e-05
0.0407309
0.001298611
0.04039248
0.002631671
0.04000443
0.004352595
0.03987731
0.00714315
0.03943306
0.009887631
0.03867974
0.01016
0.03857164
0.01719886
0.03497085
0.03871732
0.02790278
0.04320025
0.02350262
0.01742103
0.024649
-0.01071492
0.02630459
-0.01863307
0.02675015
-0.0118638
0.02574358
-0.001433452
0.02307229
0.005170595
0.01832539
0.005830462
0.01150301
0.004613824
0.004804134
0.01168767
-0.0002345206
0.0209662
-0.004887124
0.0202441
-0.009054577
0.01510049
-0.009137468
-0.001236485
-0.007848592
-0.007489176
-0.005643547
-0.00871663
-0.003396801
-0.006806418
-0.001438943
-0.005482055
0.0006743556
-0.007529702
0.002232491
-0.006799855
0.003265547
-0.004613261
0.003487872
-0.0008073456
0.00320704
0.001596236
0.002565535
0.00255056
0.001891146
0.001944773
0.00157149
0.0002149918
0.001789771
-0.001435951
0.002934867
-0.004158708
0.004763167
-0.006482334
0.006928581
-0.007867331
0.009183706
-0.008415436
0.01142068
-0.008507152
0.01345362
-0.007825202
0.0150865
-0.006363105
0.0161609
-0.004105046
0.01656074
-0.001103543
0.003281951
0.0196416
-0.02014865
0.009994135
0.01674142
0.02068131
0.007195018
0.03451691
-0.002867449
0.04381833
-0.006584386
0.02762474
-0.006927193
-0.007483267
-0.007531453
-0.02251061
-0.008668179
-0.01433366
-0.01046555
0.01843942
-0.01098742
0.01956511
-0.009293445
-0.002754273
-0.005733057
-0.01607225
-0.002086436
-0.01652486
0.002390299
-0.01933616
0.003997798
-0.009035861
0.003724407
0.004698408
0.0003548574
0.02405016
-0.005418285
0.02268695
-0.00652572
-0.007606222
-0.00577368
-0.01868035
-0.005662672
-0.01215024
-0.004008819
-0.01307793
-0.0002401618
-0.01865621
0.004090511
-0.02140933
0.005816009
-0.01768897
0.005391781
-0.004668994
-0.0002362593
0.04854366
-0.01578697
0.08443805
-0.0325181
0.05730984
-0.04159237
0.02342454
-0.04606223
0.01169818
-0.04979865
0.001514736
-0.05398929
-0.006112318
-0.05876845
-0.005244906
-0.06065089
0.01127584
-0.05733892
0.02757075
-0.05415666
0.02509916
-0.05429793
0.01523146
-0.05476828
0.01054283
-0.05528879
0.006638657
-0.05578045
0.003951715
-0.05611263
0.002369706
-0.05638833
0.001502549
-0.05639008
0.000498016
-0.05644075
0.0002027313
-0.05599534
-0.001540067
-0.05554126
-0.001881663
-0.05502113
-0.002155582
-0.05430663
-0.002798972
-0.05369163
-0.002721221
-0.05282313
-0.003552177
-0.05191632
-0.003891582
-0.05081422
-0.004648139
-0.04964416
-0.004922268
-0.04848924
-0.004971068
-0.04715485
-0.005685578
-0.04575778
-0.005945422
-0.04437509
-0.00592969
-0.0428005
-0.006778048
-0.04114839
-0.00706262
-0.03943138
-0.00736851
-0.03768005
-0.007459753
-0.03593444
-0.007608507
-0.0339531
-0.008405797
-0.03207425
-0.008158667
-0.0300225
-0.008751552
-0.02794036
-0.00896663
-0.02584814
-0.009007088
-0.02371454
-0.009090709
-0.02151172
-0.009514796
-0.0192967
-0.009545501
-0.0170342
-0.009663183
-0.01476918
-0.009764674
-0.01242885
-0.009825318
-0.01023264
-0.009527346
-0.007896222
-0.01006617
-0.005557047
-0.01009033
-0.003247949
-0.01020034
-0.0008239673
-0.01077487
0.001512638
-0.01008674
0.003883206
-0.009871734
0.006177837
-0.009846845
0.008452535
-0.009752853
0.01067713
-0.00956464
0.01288024
-0.009539748
0.0150273
-0.009276924
0.01725266
-0.009468557
0.01936345
-0.009106666
0.02138932
-0.008698844
0.0234406
-0.008761733
0.02543052
-0.008527593
0.02734889
-0.008223346
0.02926538
-0.008193723
0.03111095
-0.007928335
0.03278908
-0.00722851
0.03447158
-0.007195653
0.03607222
-0.006919383
0.03757279
-0.00639985
0.03908269
-0.006423061
0.04040743
-0.005687285
0.0416864
-0.005409053
0.0428194
-0.004871527
0.04384794
-0.004353671
0.04488277
-0.004330431
0.04576358
-0.003782704
0.04658312
-0.003365212
0.04723577
-0.002768965
0.04780434
-0.002295841
0.04829438
-0.001901556
0.04857695
-0.001080006
0.04884611
-0.0008747218
0.04894005
-0.0001462984
0.04875156
0.001487097
0.04837446
0.003008768
0.04798337
0.004743687
0.04782293
0.007303585
0.04738282
0.01032775
0.04601943
0.01152339
0.04646304
0.01675525
0.0485694
0.03661096
0.04759312
0.04417653
0.04395011
0.02106404
0.04176649
-0.008531306
0.03988417
-0.01675075
0.03806325
-0.01004288
0.03581251
0.0008172844
0.03244152
0.008541585
0.02666749
0.0116045
0.01732409
0.01395723
0.007962238
0.02104952
0.0008666561
0.02806178
-0.005330544
0.0264413
-0.01086273
0.02063267
-0.01151392
-0.0005852963
-0.01049923
-0.008503861
-0.007526761
-0.0116891
-0.004445361
-0.009887818
-0.001770755
-0.008156661
0.0007732581
-0.01007372
0.002346304
-0.0083729
0.003253415
-0.005520372
0.003328403
-0.0008823333
0.002918889
0.00200575
0.00201157
0.003457878
0.001055374
0.00290097
0.0007224377
0.0005479277
0.00141674
-0.002130253
0.003270409
-0.006012377
0.005743123
-0.008955048
0.008470687
-0.01059489
0.01125121
-0.01119596
0.01399915
-0.01125509
0.01649059
-0.01031664
0.01850116
-0.008373676
0.01981284
-0.005416726
0.02038156
-0.00167226
0.003514859
0.02392818
-0.02511526
0.01118121
0.02163112
0.02297836
0.01341552
0.04273251
0.002687928
0.05454593
-0.0001146428
0.03042731
-0.0003130932
-0.007284816
-0.005058614
-0.01776509
-0.00990118
-0.009491096
-0.01282288
0.02136112
-0.01326846
0.02001068
-0.01055913
-0.005463608
-0.005862601
-0.02076877
-0.001602409
-0.02078506
0.003565166
-0.02450373
0.00490734
-0.01037804
0.004305464
0.005300284
0.001733949
0.02662168
-0.004583138
0.02900404
-0.008742442
-0.003446918
-0.01090046
-0.01652233
-0.01158529
-0.01146541
-0.009859566
-0.01480366
-0.005789759
-0.02272601
-0.001655989
-0.0255431
-0.0021889
-0.01715606
-0.004039354
-0.00281854
-0.01176793
0.05627224
-0.02637685
0.09904697
-0.04150696
0.07243995
-0.04942586
0.03134344
-0.05418536
0.01645768
-0.05874466
0.006074037
-0.0631851
-0.001671877
-0.06820586
-0.0002241486
-0.07032344
0.01339342
-0.06774366
0.02499097
-0.06537742
0.02273291
-0.06561599
0.01547003
-0.06597197
0.0108988
-0.06658003
0.007246714
-0.06711908
0.004490765
-0.06740063
0.002651258
-0.06779633
0.001898248
-0.06766121
0.0003629006
-0.06767524
0.0002167603
-0.06720396
-0.002011345
-0.06662269
-0.002462934
-0.06605953
-0.002718743
-0.0651114
-0.003747102
-0.0644192
-0.003413417
-0.06336173
-0.004609648
-0.06230162
-0.004951691
-0.06095825
-0.005991514
-0.05952085
-0.006359666
-0.05816008
-0.006331843
-0.05659275
-0.007252906
-0.05484754
-0.007690628
-0.05319856
-0.007578675
-0.05133953
-0.00863708
-0.0493793
-0.009022846
-0.04727893
-0.009468882
-0.04515998
-0.009578704
-0.04317047
-0.009598017
-0.04070559
-0.01087068
-0.03850894
-0.01035531
-0.03597229
-0.0112882
-0.03354362
-0.01139529
-0.03103221
-0.0115185
-0.02843711
-0.01168581
-0.02584498
-0.01210693
-0.02316382
-0.01222666
-0.02044288
-0.01238412
-0.01777824
-0.01242931
-0.01489744
-0.01270612
-0.01232447
-0.01210032
-0.009451042
-0.0129396
-0.006635937
-0.01290544
-0.00389765
-0.01293862
-0.001013907
-0.01365862
0.001836717
-0.01293736
0.004629286
-0.0126643
0.007355906
-0.01257346
0.01011173
-0.01250868
0.01279827
-0.01225118
0.01544718