/*--------------------------------*- C++ -*----------------------------------*\
| =========                 |                                                 |
| \\      /  F ield         | OpenFOAM: The Open Source CFD Toolbox           |
|  \\    /   O peration     | Version:  2406                                  |
|   \\  /    A nd           | Website:  www.openfoam.com                      |
|    \\/     M anipulation  |                                                 |
\*---------------------------------------------------------------------------*/
FoamFile
{
    version     2.0;
    format      ascii;
    arch        "LSB;label=32;scalar=64";
    class       surfaceScalarField;
    location    "3.54";
    object      phi;
}
// * * * * * * * * * * * * * * * * * * * * * * * * * * * * * * * * * * * * * //

dimensions      [0 3 -1 0 0 0 0];

oriented        oriented;

internalField   nonuniform List<scalar> 
23794
(
0.0006524665
-0.004042854
0.003390388
-0.001452046
0.002104513
-0.00276656
0.001314513
-0.004342488
0.001575929
-0.004045538
-0.00029695
-0.001880612
-0.002164926
9.584541e-05
-0.001976457
-0.0009097466
0.001005592
-0.003160869
0.002251123
-0.003120788
-4.008127e-05
-0.001905369
-0.001215419
-0.0006287965
-0.001276573
0.0004724993
-0.001101296
0.001734203
-0.001261704
0.002731463
-0.0009972594
0.003534668
-0.0008032048
0.00411831
-0.0005836428
0.003656435
0.0004618751
0.001470372
0.002186063
-0.001665432
0.003135805
-0.00408617
0.002420738
-0.004004145
-8.202487e-05
-0.0007525156
-0.00325163
0.002295023
-0.003047539
0.00373017
-0.001435147
0.005160458
-0.001430288
0.007576561
-0.002416104
0.01112539
-0.00354883
0.01309096
-0.001965567
0.008840759
0.0042502
-0.0005842238
0.009424983
-0.003936083
0.003351859
0.00048176
-0.004417843
0.00443995
-0.00395819
0.004744044
-0.0003040944
0.002841618
0.001902426
-0.001635343
0.00447696
-0.00701955
0.005384208
-0.01078089
0.003761342
-0.01278735
0.002006456
-0.01388693
0.001099586
-0.01458507
0.0006981352
-0.0150688
0.0004837344
-0.01540622
0.0003374111
-0.0156357
0.0002294838
-0.01568644
5.074186e-05
-0.01566083
-2.560863e-05
-0.01559855
-6.228237e-05
-0.01549246
-0.0001060923
-0.01537311
-0.0001193484
-0.01519674
-0.0001763723
-0.01498165
-0.0002150849
-0.01470941
-0.0002722434
-0.01441522
-0.0002941875
-0.01410589
-0.0003093268
-0.01374336
-0.000362533
-0.01336261
-0.0003807533
-0.01297574
-0.0003868658
-0.01252521
-0.0004505358
-0.01205318
-0.0004720269
-0.01155695
-0.0004962345
-0.01105578
-0.000501163
-0.01053499
-0.0005207959
-0.009964849
-0.0005701374
-0.009404042
-0.0005608062
-0.008803056
-0.0006009867
-0.008185021
-0.0006180344
-0.007563417
-0.0006216041
-0.006934519
-0.0006288982
-0.006274666
-0.0006598535
-0.005614346
-0.0006603196
-0.004947677
-0.0006666685
-0.00426911
-0.0006785673
-0.003594275
-0.0006748354
-0.002935486
-0.0006587889
-0.00223702
-0.0006984655
-0.001546412
-0.0006906084
-0.0008473721
-0.00069904
-7.048535e-05
-0.0007768867
0.0007046015
-0.0007750868
0.001408497
-0.0007038952
0.002099717
-0.0006912198
0.00278652
-0.0006868036
0.00345862
-0.0006720998
0.004131851
-0.0006732315
0.004787002
-0.0006551505
0.005454079
-0.0006670775
0.006101181
-0.0006471014
0.006714884
-0.0006137028
0.007332112
-0.0006172283
0.007936
-0.0006038882
0.008517346
-0.0005813459
0.009095059
-0.0005777128
0.009657464
-0.0005624055
0.01016659
-0.0005091246
0.01067004
-0.0005034549
0.01115769
-0.0004876447
0.01160393
-0.0004462392
0.01205005
-0.000446119
0.01244479
-0.0003947426
0.01281117
-0.0003663798
0.01313834
-0.0003271661
0.01342254
-0.0002842072
0.0137004
-0.0002778597
0.01394043
-0.000240024
0.01414029
-0.0001998609
0.01429712
-0.0001568367
0.01441005
-0.0001129225
0.01449074
-8.069597e-05
0.01450392
-1.317787e-05
0.01446771
3.621158e-05
0.01431757
0.0001501386
0.01396221
0.0003553625
0.01336435
0.0005978616
0.01235053
0.001013813
0.01040929
0.001941242
0.006834547
0.003574744
0.002334966
0.004499581
0.0003709607
0.001964006
-0.001461709
0.00183267
-0.005903193
0.004441483
-0.007925607
0.002022414
-0.005811368
-0.002114238
-0.003078071
-0.002733298
-0.001298707
-0.001779364
0.0006562121
-0.001954919
0.00372837
-0.003072157
0.005195469
-0.0014671
-0.0009751836
0.006170653
-0.007922897
0.006947713
-0.008774647
0.0008517498
-0.006279373
-0.002495273
-0.003688209
-0.002591165
-0.002019965
-0.001668244
-0.0004517199
-0.001568245
0.001267891
-0.001719611
0.002869792
-0.001601901
0.003261187
-0.0003913953
0.00264406
0.0006171273
0.001801964
0.000842096
0.001118498
0.0006834662
0.0007458617
0.0003726362
0.0002363846
0.0005094771
-0.0003595501
0.0005959348
-0.000919033
0.0005594829
-0.001335018
0.0004159854
-0.001469219
0.0001342008
-0.001257525
-0.0002116946
-0.0006893283
-0.0005681962
0.0001291139
-0.0008184422
0.0009846858
-0.000855572
0.001980061
-0.0009953747
0.003091605
-0.001111545
0.004147058
-0.001055453
0.005176268
-0.00102921
0.005689973
-0.0005137054
0.001647119
0.00445171
-0.00809612
0.007034798
-0.001261002
0.007817225
-0.004608434
0.004661945
-0.00560597
0.002573465
-0.005276166
-0.0006267537
-0.003471879
-0.003969213
-0.001676866
-0.003771471
-0.003025377
0.002354103
-0.004457517
0.003683262
-0.003584343
-0.0009132545
-0.002290825
-0.002508938
-0.0009034786
-0.002663919
0.0001629175
-0.002167692
0.001567135
-0.002665922
0.003095865
-0.002525989
0.004505029
-0.002212369
0.005493467
-0.00157208
0.005439989
0.0005153528
0.003729629
0.003896422
-0.0006692161
0.00753465
-0.005568072
0.007319593
-0.005494903
-0.0001551933
-0.001252589
-0.007493944
0.001863517
-0.006163645
0.00320838
-0.00278001
0.004555916
-0.002777824
0.006962944
-0.004823131
0.01079291
-0.007378798
0.01387321
-0.005045865
0.0122745
0.00584891
0.002754143
0.01894534
-0.002933528
0.009039531
-0.002170088
-0.005181283
-0.001130771
-0.004997506
-0.001875493
0.0004406276
-0.007130859
0.007157792
-0.01461023
0.01195633
-0.01995182
0.01072579
-0.02195777
0.005767298
-0.02250163
0.00255031
-0.0226564
0.001254361
-0.02267687
0.0007186036
-0.02263455
0.0004414156
-0.02255313
0.0002559905
-0.02244777
0.000124125
-0.02223854
-0.000158489
-0.02201388
-0.0002502683
-0.02177196
-0.0003042071
-0.02148481
-0.0003932394
-0.0211853
-0.0004188547
-0.02082656
-0.0005351202
-0.0204297
-0.0006119385
-0.01997092
-0.0007310256
-0.019489
-0.0007761117
-0.01899813
-0.0008001885
-0.01844981
-0.0009108543
-0.017879
-0.0009515693
-0.01730647
-0.0009593925
-0.01666069
-0.001096311
-0.01599484
-0.001137881
-0.01530101
-0.001190063
-0.01460086
-0.001201311
-0.01388397
-0.001237692
-0.01310833
-0.001345776
-0.01234533
-0.001323808
-0.01154053
-0.00140578
-0.01071389
-0.001444675
-0.009886551
-0.001448947
-0.009055344
-0.001460104
-0.00818641
-0.001528788
-0.007316084
-0.001530646
-0.006441266
-0.001541486
-0.005553445
-0.001566388
-0.004672215
-0.001556066
-0.00380863
-0.001522373
-0.002902546
-0.001604549
-0.002001896
-0.001591259
-0.001089126
-0.00161181
-9.125175e-05
-0.001774761
0.0009051713
-0.00177151
0.001823213
-0.001621937
0.002724851
-0.001592858
0.003618945
-0.001580897
0.004498592
-0.001551747
0.005380938
-0.001555578
0.006242649
-0.001516861
0.007118244
-0.001542673
0.007972079
-0.001500936
0.008785624
-0.001427247
0.00960544
-0.001437044
0.01041394
-0.001412384
0.0111944
-0.001361808
0.0119711
-0.001354415
0.01273526
-0.001326563
0.01343654
-0.001210409
0.01413536
-0.001202275
0.01481667
-0.001168949
0.01545178
-0.001081357
0.01608881
-0.001083143
0.01666572
-0.0009716507
0.01721799
-0.0009186508
0.01772655
-0.0008357244
0.01818805
-0.000745714
0.01864914
-0.0007389463
0.01907036
-0.0006612472
0.01944786
-0.000577357
0.01978166
-0.0004906414
0.02007093
-0.000402193
0.02032823
-0.0003379955
0.02052431
-0.0002092554
0.02072614
-0.0001656186
0.02090711
-3.082858e-05
0.02099876
0.0002637147
0.02102758
0.0005690372
0.02096787
0.001073526
0.02058711
0.002321998
0.01874501
0.00541685
0.0144123
0.008832288
0.007061772
0.009314532
-0.0008391331
0.009733575
-0.004474379
0.008076729
-0.003508554
0.001056589
-0.0005416143
-0.005081178
0.001607536
-0.004882448
0.002681661
-0.002853489
0.003567262
-0.00284052
0.005995366
-0.005500261
0.00529501
-0.0007667437
-0.003864259
0.01532992
-0.0104403
0.01352376
-0.009863705
0.0002751522
-0.007128149
-0.00523083
-0.004251971
-0.005467342
-0.002437511
-0.003482704
-0.0006359496
-0.003369807
0.001557749
-0.00391331
0.004062977
-0.004107129
0.005446162
-0.001774581
0.004657931
0.001405359
0.002632226
0.0028678
0.001287235
0.002028457
0.0008879034
0.0007719678
0.0002952114
0.001102169
-0.0004249766
0.001316123
-0.00106786
0.001202367
-0.001501569
0.0008496939
-0.001614171
0.0002468031
-0.001344744
-0.0004811219
-0.0006447271
-0.001268213
0.0003535529
-0.001816722
0.001424826
-0.001926845
0.002656479
-0.002227029
0.004030095
-0.002485161
0.005418952
-0.002444309
0.006576969
-0.002187227
0.007836224
-0.00177296
0.001387223
0.008875218
-0.01017733
0.008336913
0.002130732
0.01456171
-0.004209362
0.01100204
-0.006304278
0.00466838
-0.006493128
-0.0004379036
-0.005259063
-0.005203278
-0.003924042
-0.005106493
-0.00484373
0.003273792
-0.005312363
0.004151895
-0.004046686
-0.002178932
-0.002384767
-0.004170856
-0.0004322057
-0.00461648
0.001009679
-0.003609576
0.002752623
-0.004408866
0.004563379
-0.004336745
0.006237358
-0.003886349
0.007331745
-0.002666467
0.007037048
0.0008100492
0.005288046
0.005645425
0.001048459
0.01177424
-0.004839731
0.01320778
-0.006007429
0.001012505
-0.002177619
-0.01132375
2.713298e-05
-0.008368396
0.0009883909
-0.003741268
0.001964482
-0.003753915
0.004418616
-0.007277266
0.008979341
-0.01193952
0.01205258
-0.0081191
0.01143406
0.006467429
0.004688971
0.02569043
-0.004092541
0.01782104
-0.01037195
0.001098131
-0.01480601
-0.0005634469
-0.01754357
0.003178182
-0.02169272
0.01130695
-0.0254987
0.01576231
-0.02659775
0.01182484
-0.02640409
0.005573633
-0.02641599
0.002562214
-0.02651433
0.001352696
-0.0265874
0.000791677
-0.02662253
0.0004765398
-0.02661231
0.0002457796
-0.02656763
7.944446e-05
-0.02636379
-0.0003623372
-0.02611394
-0.0005001114
-0.02583927
-0.0005788763
-0.02551039
-0.0007221274
-0.02516875
-0.0007604916
-0.02475312
-0.0009507506
-0.02429309
-0.00107197
-0.023757
-0.001267112
-0.02319301
-0.001340105
-0.02261922
-0.00137398
-0.02197343
-0.00155664
-0.02130054
-0.00162446
-0.02062712
-0.001632811
-0.01986272
-0.001860708
-0.01907431
-0.001926294
-0.01825183
-0.002012546
-0.01742132
-0.002031816
-0.01657058
-0.002088432
-0.01564686
-0.002269501
-0.01473976
-0.002230907
-0.01377974
-0.002365795
-0.0127935
-0.002430913
-0.01180555
-0.002436903
-0.01081243
-0.002453222
-0.009773336
-0.002567884
-0.008732288
-0.002571693
-0.007684954
-0.00258882
-0.006622577
-0.002628766
-0.005567245
-0.002611398
-0.004533491
-0.002556128
-0.003451532
-0.002686508
-0.002376192
-0.002666599
-0.001287769
-0.002700233
-0.0001074715
-0.002955059
0.001073526
-0.002952507
0.002172374
-0.002720785
0.003253196
-0.002673681
0.004324329
-0.00265203
0.005378176
-0.002605594
0.006434148
-0.002611551
0.007464364
-0.002547076
0.008510766
-0.002589075
0.009530008
-0.002520178
0.01050071
-0.002397945
0.01147856
-0.002414895
0.01244165
-0.002375476
0.01337068
-0.002290842
0.01429544
-0.002279173
0.01520393
-0.002235054
0.01603609
-0.002042566
0.01686578
-0.00203197
0.01767368
-0.001976851
0.01842485
-0.001832521
0.01918009
-0.001838384
0.01986097
-0.001652529
0.02051319
-0.001570877
0.02111199
-0.001434521
0.02165268
-0.001286405
0.02219474
-0.001281009
0.02268617
-0.001152673
0.02312686
-0.001018052
0.02351411
-0.000877883
0.02384809
-0.0007361756
0.02414481
-0.0006347158
0.02436568
-0.0004301255
0.02457292
-0.0003728565
0.0247194
-0.00017731
0.02473563
0.0002474877
0.02468184
0.0006228267
0.02460975
0.00114561
0.02469844
0.002233309
0.02490987
0.005205417
0.02394383
0.009798328
0.0179403
0.01531806
0.007083883
0.02058999
0.001471158
0.01368945
0.003907692
-0.001379946
0.007661647
-0.008835132
0.009959512
-0.007180313
0.01023566
-0.003129642
0.009302602
-0.001907458
0.008658164
-0.004855824
0.004317535
0.003573886
-0.005504548
0.025152
-0.01129307
0.01931228
-0.01063838
-0.0003795335
-0.007347098
-0.008522116
-0.004152718
-0.008661723
-0.002349427
-0.005285994
-0.0005787688
-0.005140465
0.001670423
-0.006162501
0.004533983
-0.006970688
0.006347784
-0.003588382
0.005350493
0.002402649
0.002849156
0.005369137
0.001497483
0.00338013
0.001165615
0.001103836
0.0004586121
0.001809172
-0.0003866304
0.002161365
-0.001175942
0.001991678
-0.001748847
0.001422599
-0.001942998
0.000440954
-0.001676685
-0.0007474344
-0.0009190648
-0.002025834
0.0002253855
-0.002961172
0.001478601
-0.00318006
0.002926841
-0.003675268
0.004550216
-0.004108535
0.006180785
-0.004074878
0.007660911
-0.003667353
0.008882762
-0.002994811
9.265111e-05
0.01264458
-0.01166388
0.007356207
0.00840018
0.01880611
-0.0003091724
0.01971139
-0.005612166
0.009971374
-0.0070732
0.001023131
-0.006548046
-0.005728433
-0.005685102
-0.005969436
-0.006159336
0.003748025
-0.006191036
0.004183596
-0.004790678
-0.00357929
-0.002742036
-0.006219498
-0.0001083286
-0.007250188
0.002182726
-0.005900631
0.004651443
-0.006877582
0.006782313
-0.006467615
0.008550223
-0.005654259
0.009613167
-0.003729411
0.009023127
0.001400089
0.006734444
0.007934108
0.003102065
0.01540662
-0.002869271
0.01917912
-0.005817887
0.003961122
-0.003695263
-0.01344638
-0.002786311
-0.009277348
-0.003085258
-0.003442322
-0.00244433
-0.004394842
0.0007231678
-0.01044476
0.005583322
-0.01679968
0.009015836
-0.01155161
0.008413962
0.007069303
0.002785182
0.03131921
-0.01007718
0.03068341
-0.02227351
0.01329446
-0.02840752
0.005570564
-0.03084171
0.005612374
-0.03224324
0.01270848
-0.03216825
0.01568732
-0.03145285
0.01110944
-0.03147175
0.005592535
-0.03185675
0.002947221
-0.03210786
0.001603802
-0.0322447
0.0009285203
-0.0322939
0.0005257377
-0.03226561
0.0002174866
-0.03218906
2.900068e-06
-0.03191194
-0.0006394595
-0.0315868
-0.0008252567
-0.03123203
-0.0009336431
-0.03081228
-0.001141875
-0.03038134
-0.001191437
-0.02986396
-0.001468133
-0.02929489
-0.001641032
-0.02863563
-0.001926372
-0.02794345
-0.002032287
-0.02724117
-0.002076265
-0.02645474
-0.002343068
-0.02563595
-0.002443248
-0.02481707
-0.002451689
-0.02389292
-0.002784865
-0.02293791
-0.002881295
-0.02194315
-0.003007307
-0.0209401
-0.003034869
-0.01991401
-0.003114525
-0.01879894
-0.003384566
-0.01770623
-0.003323616
-0.01654882
-0.003523208
-0.01536145
-0.003618282
-0.01417084
-0.003627516
-0.01297468
-0.00364938
-0.01172351
-0.003819052
-0.01046993
-0.003825273
-0.009208317
-0.003850436
-0.007930366
-0.003906716
-0.006658743
-0.003883021
-0.005415808
-0.003799063
-0.004116138
-0.003986179
-0.00282617
-0.003956566
-0.001526101
-0.004000301
-0.0001298745
-0.004351286
0.001271735
-0.004354117
0.002592244
-0.004041294
0.003895044
-0.00397648
0.005183209
-0.003940195
0.006448958
-0.003871343
0.007716272
-0.003878865
0.008952048
-0.003782853
0.01020909
-0.003846119
0.01143087
-0.003741956
0.0125969
-0.003563978
0.01377257
-0.003590559
0.01492869
-0.003531601
0.01604706
-0.003409212
0.01716192
-0.003394035
0.01825458
-0.003327713
0.01925917
-0.003047154
0.02026176
-0.003034561
0.02123711
-0.002952198
0.02214648
-0.002741895
0.02306162
-0.002753517
0.02388818
-0.002479097
0.02468056
-0.002363251
0.02540996
-0.002163918
0.02607291
-0.00194936
0.02673721
-0.001945305
0.02734132
-0.001756784
0.02788763
-0.001564362
0.02836892
-0.001359179
0.02878981
-0.001157063
0.02916904
-0.001013943
0.02945725
-0.0007183418
0.02973341
-0.0006490146
0.02993591
-0.0003798094
0.02996651
0.0002168929
0.02987899
0.0007103469
0.02968592
0.001338676
0.02942589
0.002493334
0.02941031
0.005220998
0.02998173
0.009226908
0.02828486
0.01701494
0.02140074
0.02747411
0.01562368
0.01946651
0.01568791
-0.001444177
0.01856466
-0.01171188
0.01997092
-0.008586577
0.01943548
-0.002594196
0.01684925
0.0006787719
0.01252614
-0.0005327111
0.004189239
0.01191078
-0.006050428
0.03539167
-0.01160926
0.02487111
-0.01120809
-0.0007807039
-0.007228907
-0.01250129
-0.003482571
-0.01240806
-0.00159445
-0.007174116
-9.887267e-06
-0.006725028
0.002065514
-0.008237902
0.004913214
-0.009818389
0.006635397
-0.005310565
0.005303557
0.003734489
0.002875672
0.007797022
0.001813921
0.004441881
0.001467993
0.001449764
0.0005838492
0.002693316
-0.0004802271
0.003225441
-0.00147375
0.002985201
-0.002185794
0.002134643
-0.00247958
0.0007347399
-0.002302686
-0.0009243286
-0.001516306
-0.002812214
-0.0001629201
-0.004314558
0.001346731
-0.004689712
0.003088921
-0.005417458
0.005050781
-0.006070395
0.007006186
-0.006030283
0.008817892
-0.00547906
0.01019161
-0.004368534
-0.00137961
0.01539659
-0.01331772
0.005277332
0.01534164
0.01886107
0.009217664
0.02583536
0.001055002
0.01813404
-0.00421537
0.006293502
-0.006439431
-0.003504372
-0.006617044
-0.005791823
-0.006958937
0.004089919
-0.006957714
0.004182372
-0.005515241
-0.005021763
-0.003218047
-0.008516692
-0.000132379
-0.01033586
0.002875521
-0.008908531
0.006286969
-0.01028903
0.009039255
-0.009219901
0.01106241
-0.007677414
0.01219901
-0.004866014
0.01136499
0.002234115
0.008362978
0.01093612
0.004975351
0.01879424
-0.0004508865
0.02460536
-0.005110347
0.008620582
-0.006013086
-0.01254364
-0.00737875
-0.007911684
-0.008887896
-0.001933176
-0.008657098
-0.004625639
-0.005826888
-0.01327497
-0.0009688351
-0.02165773
0.002254686
-0.01477514
0.001948168
0.007375822
-0.004520143
0.03778752
-0.01945364
0.0456169
-0.0325281
0.02636892
-0.03702064
0.01006311
-0.03859061
0.007182346
-0.03864458
0.01276244
-0.03758263
0.01462537
-0.03707702
0.01060382
-0.03742681
0.00594233
-0.03785663
0.003377033
-0.03814941
0.001896588
-0.03832689
0.001105995
-0.03842714
0.0006259945
-0.03841512
0.0002054589
-0.0383615
-5.071647e-05
-0.03805475
-0.0009462074
-0.03769199
-0.00118802
-0.03729289
-0.001332737
-0.03680247
-0.001632299
-0.03631476
-0.001679145
-0.03570654
-0.002076353
-0.03504286
-0.002304719
-0.0342631
-0.00270613
-0.0334446
-0.002850788
-0.03261753
-0.002903335
-0.03168129
-0.003279301
-0.03070676
-0.003417779
-0.0297359
-0.003422552
-0.02863484
-0.003885927
-0.02749343
-0.004022706
-0.02630504
-0.004195698
-0.02510901
-0.004230899
-0.0238849
-0.004338628
-0.02254712
-0.004722345
-0.02124316
-0.004627578
-0.01985482
-0.004911555
-0.01843327
-0.005039825
-0.01700489
-0.005055896
-0.01557112
-0.005083154
-0.0140671
-0.005323069
-0.01255973
-0.005332646
-0.0110395
-0.005370667
-0.009502503
-0.005443711
-0.007969322
-0.005416202
-0.006474041
-0.005294343
-0.004908877
-0.005551343
-0.003358217
-0.005507227
-0.001805776
-0.005552742
-0.0001575946
-0.005999468
0.001504687
-0.006016398
0.003094533
-0.00563114
0.004666011
-0.005547958
0.006212194
-0.005486377
0.007729463
-0.005388612
0.009249669
-0.00539907
0.01073031
-0.00526349
0.01224002
-0.005355837
0.01370063
-0.00520256
0.01510051
-0.004963862
0.0165143
-0.005004343
0.0178962
-0.004913505
0.01923779
-0.004750798
0.02058016
-0.004736405
0.02188656
-0.004634118
0.02308953
-0.004250123
0.02429234
-0.004237372
0.02545862
-0.004118477
0.02654236
-0.003825636
0.0276391
-0.003850255
0.02862366
-0.003463662
0.02956695
-0.00330654
0.03043363
-0.003030595
0.03121725
-0.00273298
0.03200587
-0.002733925
0.0327149
-0.002465817
0.03335935
-0.002208806
0.03391906
-0.001918892
0.03440626
-0.001644267
0.03484696
-0.001454637
0.03516398
-0.001035366
0.03547493
-0.0009599588
0.03568796
-0.0005928448
0.03569484
0.0002100161
0.03556769
0.0008374959
0.03534373
0.00156264
0.03504771
0.002789348
0.03471926
0.005549452
0.03497562
0.008970549
0.03600912
0.01598144
0.0355789
0.02790434
0.03348645
0.02155896
0.0319
0.0001422706
0.03158093
-0.01139281
0.03085645
-0.007862091
0.02914386
-0.0008816114
0.02535822
0.004464418
0.01777845
0.007047057
0.005783338
0.0239059
-0.00542481
0.04659982
-0.01123496
0.03068126
-0.01086439
-0.001151278
-0.006388022
-0.01697766
-0.002169204
-0.01662688
-0.0001136774
-0.009229642
0.001226919
-0.008065624
0.002805004
-0.009815988
0.00520185
-0.01221523
0.006410235
-0.00651895
0.004884762
0.005259962
0.002934463
0.009747322
0.002126882
0.005249462
0.001651865
0.001924781
0.0005398495
0.003805331
-0.00081159
0.004576881
-0.002008395
0.004182006
-0.002894087
0.003020335
-0.003446066
0.001286719
-0.00342469
-0.000945705
-0.002467605
-0.003769298
-0.0007225651
-0.006059598
0.001154801
-0.006567077
0.003294785
-0.007557443
0.005695244
-0.008470854
0.008071491
-0.00840653
0.01024186
-0.007649431
0.01199448
-0.00612115
-0.002702847
0.01781937
-0.01579945
0.00325741
0.02068398
0.01599646
0.01983325
0.0266861
0.01359144
0.02437585
0.005110998
0.01477394
-0.002461538
0.004068164
-0.006253055
-0.002000306
-0.007166176
0.00500304
-0.007439134
0.004455329
-0.00607838
-0.006382517
-0.003668813
-0.01092626
-0.0001512173
-0.01385345
0.003296751
-0.0123565
0.007407784
-0.01440006
0.01088348
-0.01269559
0.01351399
-0.01030793
0.01507579
-0.006427819
0.01412007
0.003189834
0.01037456
0.01468163
0.006423358
0.02274544
0.00155647
0.02947224
-0.004664954
0.01484201
-0.00957782
-0.007630774
-0.01385356
-0.003635941
-0.01686401
0.001077269
-0.01736621
-0.004123436
-0.01539292
-0.01524826
-0.01096271
-0.02608794
-0.007101182
-0.01863667
-0.008799559
0.009074199
-0.01770538
0.04669333
-0.03162917
0.0595407
-0.04074849
0.03548824
-0.04314757
0.01246219
-0.04491344
0.00894822
-0.04527165
0.01312065
-0.04480125
0.01415497
-0.04480446
0.01060703
-0.04528048
0.006418351
-0.04576393
0.003860484
-0.04608578
0.002218438
-0.04626306
0.001283275
-0.0463493
0.0007122356
-0.04627968
0.0001358357
-0.04618822
-0.0001421763
-0.04579701
-0.001337413
-0.04534821
-0.001636824
-0.04484873
-0.001832219
-0.04423081
-0.002250222
-0.04364472
-0.002265227
-0.04289791
-0.00282317
-0.04209572
-0.003106909
-0.04114911
-0.003652737
-0.04015608
-0.003843815
-0.03916152
-0.003897894
-0.03802895
-0.004411869
-0.03685403
-0.004592705
-0.03569131
-0.004585274
-0.03436768
-0.005209548
-0.03299084
-0.005399548
-0.03156421
-0.005622328
-0.03012884
-0.005666272
-0.0286639
-0.005803565
-0.02705154
-0.006334705
-0.02549574
-0.006183384
-0.02382664
-0.006580652
-0.02212259
-0.006743875
-0.02041026
-0.006768227
-0.01869375
-0.006799661
-0.01688935
-0.007127471
-0.01508273
-0.007139261
-0.01325035
-0.007203053
-0.01140181
-0.007292245
-0.009546023
-0.007271992
-0.007748136
-0.007092231
-0.005861627
-0.007437852
-0.003989845
-0.007379009
-0.002135277
-0.00740731
-0.0001897025
-0.007945042
0.001782299
-0.007988399
0.00370386
-0.007552702
0.005590708
-0.007434807
0.007443239
-0.007338909
0.009262148
-0.00720752
0.01108484
-0.007221765
0.01285836
-0.007037011
0.01467558
-0.007173052
0.01642176
-0.006948746
0.01810679
-0.006648892
0.0198142
-0.006711744
0.0214669
-0.006566214
0.02307682
-0.006360717
0.02470347
-0.006363052
0.02626823
-0.00619888
0.02770896
-0.005690851
0.02915715
-0.005685557
0.03055872
-0.005520055
0.03185548
-0.00512239
0.03317765
-0.005172431
0.03436205
-0.004648056
0.03549735
-0.004441837
0.03653895
-0.004072203
0.03748543
-0.003679458
0.03844365
-0.003692144
0.03929608
-0.003318242
0.040085
-0.002997727
0.04076321
-0.002597102
0.04136231
-0.002243371
0.04190627
-0.001998596
0.04230668
-0.001435776
0.04269384
-0.001347122
0.04297669
-0.0008756928
0.04303869
0.0001480166
0.04292185
0.0009543366
0.04268731
0.001797179
0.04236153
0.00311513
0.04198729
0.005923695
0.04163892
0.009318919
0.04273694
0.01488341
0.04567165
0.02496963
0.04651002
0.02072059
0.04422201
0.002430288
0.04163471
-0.00880552
0.03928733
-0.005514711
0.03673393
0.001671792
0.03276027
0.008438073
0.0237775
0.01602983
0.009623809
0.03805959
-0.002949969
0.0591736
-0.00910985
0.03684114
-0.008559808
-0.001701321
-0.003918581
-0.02161888
0.0004486294
-0.02099409
0.002422244
-0.01120326
0.003381917
-0.009025296
0.004119892
-0.01055396
0.005574183
-0.01366953
0.006020113
-0.00696488
0.00453836
0.006741714
0.003129973
0.01115571
0.002273894
0.006105542
0.001567302
0.002631373
0.0001997129
0.00517292
-0.001458208
0.006234802
-0.002879906
0.005603705
-0.004152024
0.004292453
-0.00511329
0.002247985
-0.005007719
-0.001051276
-0.003520339
-0.005256678
-0.0012028
-0.008377137
0.001106948
-0.008876825
0.003735102
-0.0101856
0.006696887
-0.01143264
0.009598879
-0.01130852
0.01224185
-0.0102924
0.01437863
-0.008257936
-0.004123665
0.02106059
-0.01936908
0.001565899
0.02444977
0.01260728
0.02759084
0.02354503
0.02607376
0.02589293
0.01865522
0.02219248
0.006434113
0.01628927
-0.003301687
0.007735495
-0.006480292
0.008181645
-0.007220906
0.005195944
-0.006277433
-0.00732599
-0.004082176
-0.01312152
-0.0001064988
-0.01782913
0.003804048
-0.01626705
0.008658964
-0.01925498
0.01286122
-0.01689785
0.01634287
-0.01378957
0.01856566
-0.008650607
0.01751406
0.004241438
0.01290495
0.01929073
0.007520785
0.02812961
0.002223855
0.03476917
-0.005828267
0.02289413
-0.01507195
0.001612909
-0.02243044
0.00372255
-0.02702911
0.00567594
-0.02862267
-0.002529877
-0.02858813
-0.01528281
-0.02654842
-0.02812764
-0.02398172
-0.02120336
-0.02728555
0.01237803
-0.03664539
0.05605317
-0.04553876
0.06843407
-0.04873631
0.03868579
-0.0506144
0.01434027
-0.05311451
0.01144834
-0.05385414
0.01386028
-0.05373127
0.0140321
-0.05378996
0.01066571
-0.05420719
0.006835589
-0.0547191
0.004372387
-0.0550796
0.002578942
-0.05529502
0.001498692
-0.05546201
0.0008792312
-0.05536503
3.885136e-05
-0.05533612
-0.0001710897
-0.05482035
-0.001853181
-0.05430835
-0.002148822
-0.0537297
-0.002410865
-0.05297015
-0.003009771
-0.05230649
-0.002928893
-0.05139805
-0.003731605
-0.05045588
-0.004049087
-0.04932221
-0.004786401
-0.04812546
-0.00504057
-0.04694681
-0.005076539
-0.04559473
-0.005763956
-0.04418545
-0.00600198
-0.04279101
-0.005979719
-0.04121537
-0.006785186
-0.03956767
-0.007047248
-0.03786052
-0.007329477
-0.03612253
-0.007404267
-0.03439555
-0.007530541
-0.03244351
-0.008286744
-0.03059471
-0.008032188
-0.0285816
-0.008593753
-0.02654444
-0.008781041
-0.02449942
-0.008813251
-0.02241677
-0.00888231
-0.02027329
-0.009270947
-0.01811928
-0.009293273
-0.0159194
-0.009402932
-0.01371624
-0.009495403
-0.01143614
-0.009552089
-0.009293957
-0.009234418
-0.007015337
-0.009716471
-0.00474303
-0.009651317
-0.002525643
-0.009624697
-0.0002242367
-0.01024645
0.002119674
-0.01033231
0.004446649
-0.009879677
0.00668434
-0.009672498
0.008912178
-0.009566746
0.01110142
-0.009396763
0.01327802
-0.009398365
0.01540159
-0.009160579
0.0176073
-0.009378766
0.01970318
-0.009044618
0.02172148
-0.008667198
0.02377248
-0.008762746
0.02577076
-0.008564489
0.02770582
-0.008295774
0.0296476
-0.008304839
0.03152834
-0.008079614
0.0332485
-0.007411014
0.03498294
-0.007419999
0.03664289
-0.007180001
0.0382106
-0.006690104
0.03979813
-0.006759961
0.04120802
-0.006057948
0.04258051
-0.005814324
0.04381161
-0.00530331
0.04494475
-0.004812595
0.0460985
-0.004845894
0.04709961
-0.004319348
0.04805461
-0.003952725
0.04884458
-0.003387081
0.04956174
-0.002960527
0.05021823
-0.002655087
0.05067119
-0.001888735
0.05114207
-0.001818006
0.05148123
-0.00121485
0.05150102
0.0001282279
0.0513567
0.001098652
0.05108748
0.002066402
0.05074979
0.00345282
0.05045155
0.006221935
0.05014438
0.009626093
0.05068739
0.0143404
0.05369677
0.02196025
0.05520602
0.01921134
0.05262432
0.005011987
0.049181
-0.005362198
0.04610676
-0.002440474
0.04306007
0.004718488
0.03937235
0.01212579
0.03067255
0.02472963
0.01624713
0.052485
0.002496135
0.0729246
-0.003507992
0.04284527
-0.002691269
-0.002518044
0.001204203
-0.02551436
0.005377712
-0.0251676
0.006607078
-0.01243262
0.007078414
-0.009496632
0.006672707
-0.01014826
0.006630622
-0.01362744
0.006126531
-0.006460788
0.004660164
0.008208081
0.003344822
0.01247105
0.002012378
0.007437985
0.001030667
0.003613083
-0.0006116156
0.006815204
-0.002558722
0.008181909
-0.00445714
0.007502122
-0.0063595
0.006194813
-0.007446858
0.003335342
-0.006675172
-0.001822962
-0.004382025
-0.007549824
-0.001500566
-0.0112586
0.001264553
-0.01164194
0.004503397
-0.01342444
0.008206564
-0.01513581
0.01177461
-0.01487657
0.01501851
-0.0135363
0.01758232
-0.01082175
-0.005910423
0.02572959
-0.0238754
-0.0002883003
0.02853291
0.009803968
0.03225493
0.01982301
0.03424469
0.02390317
0.03115795
0.02527922
0.0203333
0.02711392
0.004809463
0.02325933
-0.003804457
0.01679556
-0.005204057
0.006595544
-0.005727293
-0.006802754
-0.004268989
-0.01457982
4.48838e-05
-0.022143
0.004483364
-0.02070553
0.01027841
-0.02505002
0.01541446
-0.02203391
0.01996818
-0.01834329
0.02281496
-0.01149739
0.02152503
0.00553137
0.0159068
0.02490896
0.008920039
0.03511638
0.002349721
0.04133949
-0.00854305
0.0337869
-0.02264336
0.01571322
-0.0326341
0.01371329
-0.03864197
0.01168382
-0.04156764
0.0003957923
-0.04460685
-0.0122436
-0.04708377
-0.02565072
-0.04997551
-0.01831162
-0.05505619
0.0174587
-0.05993065
0.06092763
-0.05975569
0.06825911
-0.05835458
0.03728468
-0.06094336
0.01692905
-0.06365091
0.01415588
-0.06456603
0.0147754
-0.06466814
0.01413422
-0.06482119
0.01081877
-0.0652595
0.007273901
-0.06584082
0.004953701
-0.06623457
0.002972698
-0.06638998
0.001654102
-0.0666476
0.001136845
-0.06641406
-0.0001946854
-0.0663468
-0.0002383478
-0.06579862
-0.002401362
-0.06514497
-0.00280247
-0.06451266
-0.003043179
-0.06350796
-0.004014474
-0.06276019
-0.003676662
-0.06165372
-0.004838069
-0.06055199
-0.005150821
-0.05916979
-0.0061686
-0.05770086
-0.006509501
-0.05631138
-0.006466021
-0.05472135
-0.007353984
-0.05296389
-0.007759441
-0.0512995
-0.007644109
-0.04943746
-0.008647227
-0.04748094
-0.009003769
-0.04539445
-0.009415966
-0.04329023
-0.009508485
-0.04131925
-0.00950152
-0.03889058
-0.01071541
-0.03672757
-0.0101952
-0.03423861
-0.01108271
-0.03186057
-0.01115909
-0.02940837
-0.01126545
-0.02687587
-0.01141481
-0.02435372
-0.01179309
-0.021749
-0.01189799
-0.01910532
-0.01204661
-0.01651872
-0.012082
-0.01371979
-0.01235101
-0.01121178
-0.01174243
-0.00840864
-0.01251961
-0.005659505
-0.01240045
-0.002998705
-0.0122855
-0.0002521818
-0.01299297
0.002578201
-0.01316269
0.005297421
-0.0125989
0.007947184
-0.01232226
0.0106557
-0.01227526
0.01330863
-0.0120497
0.01592508
-0.01201481
0.01844618
-0.01168168
0.02116567
-0.01209826
0.02366391
-0.01154285
0.02609167
-0.01109496