/*--------------------------------*- C++ -*----------------------------------*\
| =========                 |                                                 |
| \\      /  F ield         | OpenFOAM: The Open Source CFD Toolbox           |
|  \\    /   O peration     | Version:  2406                                  |
|   \\  /    A nd           | Website:  www.openfoam.com                      |
|    \\/     M anipulation  |                                                 |
\*---------------------------------------------------------------------------*/
FoamFile
{
    version     2.0;
    format      ascii;
    arch        "LSB;label=32;scalar=64";
    class       surfaceScalarField;
    location    "1.36";
    object      phi;
}
// * * * * * * * * * * * * * * * * * * * * * * * * * * * * * * * * * * * * * //

dimensions      [0 3 -1 0 0 0 0];

oriented        oriented;

internalField   nonuniform List<scalar> 
326221
(
-0.001951773
-0.004604004
0.006555776
-0.001021616
-0.0009301562
0.0004318829
-0.001453499
-0.001033946
0.001465829
-0.00128243
0.0002484845
-0.0001305053
-0.001151925
0.0003332788
-0.0004637842
0.0004279597
-9.468087e-05
7.98761e-05
0.0003480836
-0.0001818191
0.0002616952
-0.0001320773
-4.974176e-05
-0.0001811077
4.903038e-05
-0.0001898326
8.724914e-06
3.59444e-05
-0.000225777
0.0003683596
-0.0003324152
0.0004911787
-0.0001228191
0.000212623
0.0002785557
-0.0001486335
0.0003612565
-9.215215e-05
-5.648135e-05
0.0001289452
-0.0002210973
0.000172802
-4.385681e-05
0.000179253
-6.451068e-06
0.0002254636
-4.621054e-05
0.0002783838
-5.292021e-05
0.0003333556
-5.497182e-05
0.0003601563
-2.680068e-05
0.0003781066
-1.79503e-05
0.000386695
-8.588426e-06
0.0004052188
-1.852376e-05
0.0004404583
-3.523955e-05
0.0004781576
-3.769921e-05
0.0005147455
-3.658795e-05
0.0005593462
-4.460073e-05
0.0006126886
-5.334238e-05
0.0006652058
-5.251723e-05
0.0006880896
-2.288372e-05
0.0006972006
-9.111019e-06
0.0007127491
-1.554854e-05
0.0007114097
1.339429e-06
0.0006710184
4.039128e-05
0.0005877439
8.327453e-05
0.0004806051
0.0001071388
0.0003544913
0.0001261138
0.0002442233
0.000110268
0.0001478346
9.63887e-05
9.091534e-05
5.691922e-05
0.0003773882
-0.0002864729
0.00106676
-0.0006893714
0.001041215
2.554446e-05
-0.001134009
0.002175224
-0.001020314
-0.000113695
-0.0003941608
-0.0006261534
-0.0001970925
-0.0001970683
0.0002860542
-0.0004831466
0.0007119954
-0.0004259412
0.001154478
-0.0004424822
0.001597216
-0.0004427389
0.002011669
-0.0004144524
0.002410271
-0.0003986017
0.002788923
-0.0003786523
0.003176031
-0.0003871086
0.003535338
-0.0003593063
0.003899175
-0.0003638371
0.004212355
-0.0003131798
0.004486296
-0.0002739418
0.004744418
-0.0002581217
0.004979132
-0.0002347137
0.005175359
-0.0001962273
0.005348895
-0.0001735357
0.005494856
-0.0001459607
0.005622921
-0.0001280655
0.00572828
-0.0001053591
0.005812264
-8.398352e-05
0.005881273
-6.900945e-05
0.0059415
-6.022661e-05
0.005989063
-4.756348e-05
0.006025215
-3.615137e-05
0.006027039
-1.824962e-06
0.005966301
6.073878e-05
0.005858114
0.0001081869
0.005710321
0.0001477931
0.005532977
0.0001773439
0.005315663
0.0002173138
0.004956971
0.0003586925
0.004730248
0.0002267223
0.004472814
0.0002574342
0.004146869
0.0003259447
0.003714751
0.0004321183
0.00315376
0.000560991
0.002453524
0.000700236
0.001614562
0.0008389621
0.0006764286
0.0009381334
-0.0002391843
0.000915613
-0.0008330568
0.0005938724
-0.0008560443
2.298749e-05
-0.0005666459
-0.0002893984
-0.001169048
0.0006024026
-0.002884685
0.001715637
-0.003910463
0.001025778
-0.003238581
-0.0006718818
-0.001794145
-0.001444436
8.57668e-05
-0.001879912
0.002189109
-0.002103342
0.002791558
-0.0006024487
-0.0005111782
0.003302736
-0.00411854
0.003607362
-0.004471175
0.000352635
-0.003042567
-0.001428608
-0.000975269
-0.002067298
0.00100218
-0.001977449
0.001884499
-0.0008823189
-0.0003526888
0.002237188
-0.002712792
0.002360103
-0.003006321
0.0002935293
-0.002721468
-0.0002848539
-0.002305329
-0.0004161383
-0.001509568
-0.0007957613
-0.000515096
-0.000994472
0.0003071098
-0.0008222058
-5.753021e-05
0.00036464
-0.001181532
0.001124002
-0.001471796
0.000290264
-0.001051088
-0.0004207082
-0.0008977901
-0.0001532976
-0.001122162
0.0002243717
-0.001439422
0.0003172599
-0.001573361
0.0001339393
-0.001585454
1.209329e-05
-0.001665212
7.975759e-05
-0.001796114
0.000130902
-0.001772652
-2.346226e-05
-0.001401864
-0.0003707874
-0.001160469
-0.0002413949
-0.001679839
0.0005193696
-0.002836941
0.001157102
-0.003760444
0.0009235029
-0.003909695
0.0001492506
-0.003600118
-0.000309577
-0.003141834
-0.0004582838
-0.002597541
-0.0005442932
-0.002185309
-0.0004122323
-0.001950336
-0.0002349722
-0.001790835
-0.0001595016
-0.001613209
-0.0001776259
-0.001383274
-0.0002299344
-0.001019529
-0.0003637449
-0.0006343459
-0.0003851835
0.0002626492
-0.0008969951
0.001256764
-0.0009941149
0.001925024
-0.0006682602
0.001687781
0.0002372437
0.002610143
-0.0009223622
0.003498927
-0.0008887839
0.004372275
-0.0008733488
0.005252776
-0.0008805008
0.005996854
-0.0007440776
0.00656054
-0.000563686
0.006853457
-0.0002929176
0.006718223
0.0001352349
0.005805105
0.0009131179
0.003529943
0.002275161
0.0001307102
0.003399233
-0.002206272
0.002336982
-0.002120465
-8.580691e-05
-0.001694402
-0.0004260628
-0.001436042
-0.00025836
-0.0001947245
-0.001241317
0.001282858
-0.001477583
0.001020474
0.0002623848
-0.000134256
0.00115473
-0.001830686
0.00169643
-0.003208635
0.001377949
-0.002525493
-0.0006831413
-0.0005954043
-0.001930089
0.0008019778
-0.001397382
0.0017408
-0.0009388223
0.002239278
-0.0004984776
0.002562849
-0.0003235714
0.002892951
-0.0003301021
0.003116477
-0.0002235259
0.002701511
0.0004149658
0.001247907
0.001453605
-0.0003287266
0.001576633
-0.001197288
0.0008685615
-0.001464932
0.0002676443
-0.0008588971
-0.0006060353
0.0001097681
-0.0009686652
0.0006831147
-0.0005733465
0.0001446133
0.0005385014
-0.0005755404
0.0007201537
-0.0007578544
0.000182314
3.234129e-05
-0.0007901957
0.0004767318
-0.0004443905
0.0002498951
0.0002268367
-0.0002107584
0.0004606535
-0.001051676
0.0008409177
-0.0008596448
-0.0001920313
0.001808328
-0.002667973
0.002628823
-0.0008204953
-0.006153067
0.008781891
-0.006486226
0.0003331584
-0.005605844
-0.0008803816
-0.005253961
-0.0003518829
-0.004899042
-0.0003549189
-0.004631603
-0.0002674392
-0.004386986
-0.0002446178
-0.004174544
-0.0002124417
-0.003891999
-0.0002825445
-0.003744431
-0.0001475687
-0.003617434
-0.0001269965
-0.003500478
-0.0001169561
-0.003395995
-0.0001044834
-0.003295011
-0.0001009841
-0.003198969
-9.604119e-05
-0.003107663
-9.130626e-05
-0.003025492
-8.217092e-05
-0.002949404
-7.608812e-05
-0.00287638
-7.302423e-05
-0.002804637
-7.174277e-05
-0.002737811
-6.682583e-05
-0.002673466
-6.434476e-05
-0.002612944
-6.05221e-05
-0.002558087
-5.485707e-05
-0.00250255
-5.553695e-05
-0.002447026
-5.552396e-05
-0.002391199
-5.582776e-05
-0.002339128
-5.207042e-05
-0.00229157
-4.755781e-05
-0.002247891
-4.36798e-05
-0.002202704
-4.518624e-05
-0.002158159
-4.454574e-05
-0.002111202
-4.69565e-05
-0.00206934
-4.186177e-05
-0.002030378
-3.896199e-05
-0.00198995
-4.042817e-05
-0.001949208
-4.074187e-05
-0.001907531
-4.167733e-05
-0.001869249
-3.828193e-05
-0.001832799
-3.645028e-05
-0.001857849
2.504999e-05
-0.001833286
-2.456244e-05
-0.001804995
-2.829097e-05
-0.001776226
-2.876896e-05
-0.001750209
-2.60177e-05
-0.001723102
-2.710668e-05
-0.001697849
-2.525271e-05
-0.001673767
-2.408216e-05
-0.001650344
-2.342336e-05
-0.001623322
-2.702223e-05
-0.001595578
-2.774318e-05
-0.001570483
-2.509587e-05
-0.001546989
-2.349391e-05
-0.001524857
-2.213149e-05
-0.001498142
-2.671481e-05
-0.001467285
-3.085726e-05
-0.00143573
-3.155541e-05
-0.001403411
-3.231873e-05
-0.001364718
-3.869304e-05
-0.001322885
-4.183271e-05
-0.00127366
-4.922514e-05
-0.001215627
-5.803316e-05
-0.00114593
-6.969706e-05
-0.00105919
-8.673955e-05
-0.0009390976
-0.0001200926
-0.0007854936
-0.000153604
-0.0005990635
-0.0001864301
-0.0003650974
-0.0002339661
-8.658828e-05
-0.0002785091
8.996449e-05
-0.0001765528
-0.0003224277
0.0004123922
-0.001256956
0.0009345282
-0.0003115981
-0.0009453579
0.0007548231
-0.001066421
0.001119672
-0.0003648493
0.001205878
-8.62055e-05
0.001234904
-2.902642e-05
0.001261592
-2.668768e-05
0.001277703
-1.611061e-05
0.001278112
-4.089333e-07
0.001280007
-1.895189e-06
0.001298343
-1.833647e-05
0.00131822
-1.987646e-05
0.001336826
-1.86061e-05
0.001349492
-1.266584e-05
0.001361764
-1.227242e-05
0.001374189
-1.242493e-05
0.001390194
-1.600467e-05
0.001405303
-1.510953e-05
0.001416238
-1.093499e-05
0.001427402
-1.116381e-05
0.00144163
-1.422778e-05
0.001454395
-1.276525e-05
0.001466024
-1.162908e-05
0.001480879
-1.485504e-05
0.001493003
-1.212379e-05
0.001509751
-1.674851e-05
0.001530608
-2.085701e-05
0.001545541
-1.49328e-05
0.001557084
-1.154303e-05
0.001570607
-1.352242e-05
0.001586477
-1.586999e-05
0.001596152
-9.675356e-06
0.001563985
3.216653e-05
0.001584948
-2.096259e-05
0.001612831
-2.788254e-05
0.001640732
-2.790157e-05
0.001668707
-2.797521e-05
0.001698711
-3.00037e-05
0.001726513
-2.780193e-05
0.001751175
-2.466226e-05
0.001778244
-2.706915e-05
0.001809955
-3.171039e-05
0.001844627
-3.467181e-05
0.001873167
-2.854085e-05
0.001899794
-2.662698e-05
0.001929312
-2.951807e-05
0.001961502
-3.218939e-05
0.001994412
-3.291003e-05
0.002031969
-3.75568e-05
0.002071013
-3.904474e-05
0.002109782
-3.876894e-05
0.002148955
-3.917232e-05
0.002185
-3.604567e-05
0.002229852
-4.485113e-05
0.00227767
-4.781822e-05
0.002327275
-4.960535e-05
0.002380375
-5.310014e-05
0.002435119
-5.474395e-05
0.002496761
-6.164155e-05
0.00256534
-6.857897e-05
0.002634751
-6.941095e-05
0.002710687
-7.593654e-05
0.002799141
-8.845422e-05
0.002905595
-0.0001064532
0.003113454
-0.0002078596
0.003265532
-0.0001520775
0.00344012
-0.0001745881
0.003638058
-0.0001979386
0.003896188
-0.00025813
0.004160493
-0.000264305
0.004825982
-0.0006654886
0.0002219785
-0.0003188437
0.001339565
-0.001966079
0.0007034856
-0.00208875
0.001183891
-0.0008452548
0.001427001
-0.0003293151
0.001595354
-0.0001973794
0.001751911
-0.0001832447
0.001888221
-0.0001524212
0.001998801
-0.000110989
0.002096446
-9.954018e-05
0.002197967
-0.0001198574
0.002293425
-0.0001153341
0.002384196
-0.0001093767
0.002465944
-9.441449e-05
0.00254373
-9.005795e-05
0.002616482
-8.517747e-05
0.002688883
-8.840539e-05
0.002757792
-8.401821e-05
0.00282171
-7.48529e-05
0.002882646
-7.209986e-05
0.002943681
-7.526276e-05
0.003001823
-7.090783e-05
0.003057029
-6.683498e-05
0.003113405
-7.123064e-05
0.003165696
-6.441505e-05
0.00322001
-7.106274e-05
0.003275873
-7.672025e-05
0.003328243
-6.730258e-05
0.003376529
-5.982864e-05
0.003425976
-6.296952e-05
0.003475268
-6.516183e-05
0.00352208
-5.648805e-05
0.003492133
6.211408e-05
0.003548038
-7.686724e-05
0.003607331
-8.717625e-05
0.003666493
-8.706318e-05
0.003725593
-8.707509e-05
0.003785521
-8.993158e-05
0.003844601
-8.688193e-05
0.003900471
-8.053228e-05
0.003958407
-8.500534e-05
0.004017779
-9.108252e-05
0.004080838
-9.773077e-05
0.004138751
-8.645356e-05
0.004196484
-8.436023e-05
0.004254951
-8.79853e-05
0.004315773
-9.301083e-05
0.004376444
-9.358106e-05
0.00444086
-0.0001019737
0.004506822
-0.0001050066
0.004572768
-0.0001047145
0.004640327
-0.0001067315
0.00470479
-0.0001005088
0.004776781
-0.000116842
0.004849619
-0.0001206557
0.004925849
-0.0001258361
0.005003714
-0.000130965
0.005084639
-0.000135669
0.00516998
-0.0001469828
0.005262143
-0.0001607412
0.005355
-0.0001622686
0.005454446
-0.0001753818
0.005563904
-0.0001979132
0.005688984
-0.0002315327
0.005972003
-0.0004908786
0.006143185
-0.0003232595
0.006341343
-0.0003727459
0.006558479
-0.0004150748
0.006846969
-0.00054662
0.007100412
-0.0005177479
0.007856659
-0.001421736
0.007201657
0.0008769805
-0.01007578
0.009227349
0.001181592
-0.009056377
-0.001899787
-0.00871566
-0.0006925999
-0.00832544
-0.0007451391
-0.008034146
-0.0005587331
-0.007761711
-0.0005170525
-0.007527426
-0.0004467272
-0.00715464
-0.0006553301
-0.006981722
-0.0003204869
-0.006827583
-0.0002811352
-0.006681772
-0.0002627678
-0.006547514
-0.0002387414
-0.006415888
-0.0002326094
-0.006290344
-0.0002215854
-0.006167799
-0.0002138512
-0.00605432
-0.00019565
-0.005944028
-0.0001863801
-0.005838452
-0.0001786005
-0.005732873
-0.0001773213
-0.005632807
-0.0001668922
-0.005533899
-0.000163253
-0.00543887
-0.0001555511
-0.005347823
-0.000145904
-0.00525682
-0.0001465395
-0.005166895
-0.0001454498
-0.005076713
-0.0001460097
-0.004990362
-0.0001384211
-0.004905987
-0.0001319326
-0.004825435
-0.000124232
-0.004742206
-0.0001284154
-0.004661279
-0.0001254728
-0.004577259
-0.0001309759
-0.004497795
-0.0001213262
-0.004418826
-0.0001179313
-0.004339133
-0.000120121
-0.004258553
-0.0001213222
-0.00417731
-0.0001229197
-0.004098156
-0.0001174358
-0.004019469
-0.000115138
-0.004040602
4.618352e-05
-0.003974007
-9.115793e-05
-0.003906725
-9.557252e-05
-0.003837628
-9.786577e-05
-0.003771022
-9.262369e-05
-0.003701684
-9.64455e-05
-0.003633622
-9.331429e-05
-0.003564218
-9.348579e-05
-0.003494497
-9.314463e-05
-0.003420529
-0.0001009906
-0.003345274
-0.0001029984
-0.003269987
-0.0001003821
-0.00319324
-0.0001002407
-0.003115067
-0.000100305
-0.003030436
-0.0001113461
-0.002940943
-0.0001203498
-0.002847671
-0.0001248271
-0.002751144
-0.0001288466
-0.002645744
-0.0001440927
-0.00253508
-0.0001524971
-0.00241395
-0.0001703549
-0.002281774
-0.0001902089
-0.002134705
-0.000216766
-0.001968401
-0.0002530439
-0.001768759
-0.0003197347
-0.001535361
-0.0003870019
-0.001260803
-0.0004609882
-0.000916051
-0.0005787179
-0.0005426462
-0.0006519139
-0.0004576434
-0.0002615555
-0.0008001595
0.0007549083
0.001473933
0.00153465
-0.001841644
0.0005442378
0.002782028
-0.002169741
0.003953473
-0.002060229
0.005018904
-0.00193878
0.006102893
-0.001964489
0.007084584
-0.001725768
0.00791173
-0.001390833
0.008488683
-0.0008698703
0.008873922
-0.0002500036
0.009065903
0.0007211368
0.008183381
0.003157683
0.004478816
0.007103798
-0.0007735536
0.007589352
-0.003281607
0.002422246
-0.002971036
-0.0007366338
-0.002382889
-0.000846507
-0.0009818954
-0.002642311
0.0007835566
-0.003243035
0.001034303
1.163865e-05
-0.001008941
0.003197973
-0.003922294
0.004609783
-0.004595311
0.002050965
-0.002852279
-0.002426174
-0.0005892642
-0.004193104
0.001119526
-0.003106172
0.002338493
-0.00215779
0.003021166
-0.001181151
0.003475585
-0.0007779895
0.003901484
-0.0007560013
0.004319827
-0.0006418694
0.004563181
0.000171612
0.003662095
0.002354691
0.001060271
0.004178457
-0.001187098
0.00311593
-0.001482706
0.0005632522
-0.0006347582
-0.001453983
0.0003718001
-0.001975223
0.001036484
-0.001238031
2.488875e-05
0.001550097
-0.0009158364
0.001660879
-0.0007867089
5.318648e-05
0.0002344234
-0.001811328
0.0008211085
-0.001031076
0.0006356608
0.0004122843
-5.862451e-05
0.001154939
-9.382377e-06
0.0007916756
0.0009107042
-0.001112118
0.002715527
-0.004472795
0.0009191925
0.000975839
0.01892843
-0.001158568
0.001258869
-0.0002139959
-0.0004101634
-0.001374558
-4.13974e-05
-0.0005658344
0.0005311879
-0.001055732
0.001081866
-0.0009766196
0.001658845
-0.001019461
0.002243741
-0.001027635
0.002811142
-0.0009818536
0.003368861
-0.0009563208
0.003907674
-0.0009174654
0.004456539
-0.0009359732
0.004978059
-0.0008808258
0.005508061
-0.0008938393
0.005993958
-0.0007990772
0.006441634
-0.0007216174
0.006871661
-0.0006881487
0.007278475
-0.0006415281
0.007646082
-0.000563834
0.007988405
-0.0005158584
0.008298716
-0.0004562724
0.008584555
-0.0004139037
0.00883975
-0.0003605542
0.009064015
-0.000308249
0.009261939
-0.0002669336
0.009440236
-0.0002385233
0.009595922
-0.0002032498
0.009731633
-0.0001718619
0.009853722
-0.0001239139
0.009962432
-4.797152e-05
0.01006357
7.051198e-06
0.01014364
6.771857e-05
0.01019339
0.0001275937
0.01020343
0.0002072743
0.009970924
0.0005912006
0.009932907
0.0002647395
0.009852725
0.000337616
0.009709784
0.0004688853
0.009467686
0.0006742163
0.009074264
0.0009544131
0.008451897
0.001322603
0.007497964
0.001792895
0.006130501
0.002305596
0.004450475
0.002595639
0.002742594
0.002301754
0.001004253
0.001761328
-0.0007794099
0.001494265
-0.002269436
0.002092429
-0.003363472
0.002809672
-0.003270742
0.0009330481
-0.001959951
-0.001982673
-0.0005950909
-0.002809296
0.000869737
-0.00334474
0.003032702
-0.004266307
0.002874973
-0.0004447199
-0.001991238
0.008168947
-0.005500966
0.00711709
-0.005098637
-4.969468e-05
-0.003477079
-0.003050166
-0.001007961
-0.004536416
0.001575806
-0.004561216
0.002171931
-0.001478444
-0.001398163
0.005807282
-0.003853982
0.004815921
-0.003598958
3.850555e-05
-0.003317386
-0.0005664255
-0.00278506
-0.0009484644
-0.001829344
-0.001751477
-0.0006199355
-0.002203881
0.0002806404
-0.001722782
-0.0007898068
0.001435087
-0.002384702
0.002718897
-0.002247352
0.0001529136
-0.001692437
-0.0009756235
-0.001701299
-0.000144435
-0.002073257
0.0005963299
-0.002402183
0.0006461853
-0.002548728
0.0002804842
-0.002804455
0.0002678202
-0.003206075
0.0004813779
-0.003362412
0.0002872387
-0.003245913
-0.0001399612
-0.003296118
-0.0003205817
-0.003973671
0.0004361574
-0.00503395
0.001579649
-0.005697488
0.00182064
-0.005572211
0.0007982265
-0.005053525
-0.0003694352
-0.00456414
-0.0007989621
-0.004005081
-0.001017343
-0.00340595
-0.001143425
-0.002977229
-0.0008409531
-0.002663371
-0.0005488302
-0.002379607
-0.0004432652
-0.002066318
-0.0004909156
-0.001697963
-0.0005982887
-0.001197635
-0.0008640734
-0.0006605332
-0.0009222852
0.0003725132
-0.001930042
0.001417131
-0.002038732
-0.001092773
-0.0005929108
0.01435034
-0.002003
0.000479933
-0.001071354
-0.002385145
-0.001984493
0.002378967
-0.001833341
9.733315e-05
-0.0003515994
-0.002633667
0.000209365
-0.001024749
0.0004910793
-0.0003763951
0.0002507656
0.0005883973
-0.0002411894
0.0007536502
-0.0003694557
7.85246e-05
-0.0004366012
0.0001161759
-0.0003413204
-8.655588e-05
2.23687e-05
-0.0005894661
0.0004806448
-0.0007906913
0.0007895713
-0.0004317456
0.0006128458
0.0004552812
4.1018e-05
0.0009330844
-0.0001328732
0.0001174099
9.165953e-05
-0.0004456301
0.0001755045
-0.0001277018
0.0002159609
-4.690749e-05
0.0003207424
-0.0001509921
0.0004251417
-0.0001573194
0.000532117
-0.0001619472
0.0006058711
-0.0001005548
0.0006623493
-7.442852e-05
0.0006954219
-4.166096e-05
0.0007241004
-4.720225e-05
0.0007720996
-8.323877e-05
0.0008338308
-9.943041e-05
0.000902
-0.0001047571
0.0009817911
-0.0001243918
0.001077824
-0.0001493751
0.001183675
-0.0001583681
0.001258787
-9.799633e-05
0.001307573
-5.789697e-05
0.00135173
-5.970535e-05
0.001380956
-2.788616e-05
0.001369296
5.205084e-05
0.001293569
0.0001590015
0.001145792
0.0002549155
0.0008995911
0.0003723151
0.000555497
0.0004543621
0.0001517714
0.0005001143
2.799496e-05
0.0001806956
0.000442895
-0.0007013729
0.001143787
-0.001390263
0.0007945718
0.0003747595
0.004228665
0.001090644
-0.009236482
0.02249618
-0.002217079
0.003787657
-0.0021263
-0.002475925
-0.002660333
0.002913001
-0.002259516
-0.000303484
-0.0007227793
-0.004170404
-0.0001285366
-0.001618991
0.0003267105
-0.0008316423
0.0003531634
0.0005619444
-0.0002123708
0.001319184
-0.0005368178
0.0004029717
-0.0006074168
0.0001867748
-0.0004402234
-0.0002537492
-1.502649e-05
-0.001014663
0.000530743
-0.001336461
0.0009379978
-0.0008390004
0.0009067244
0.0004865546
0.0003307225
0.001509086
-6.330782e-05
0.0005114402
4.308875e-05
-0.0005520266
0.0001530557
-0.0002376688
0.0002112516
-0.0001051033
0.0003402563
-0.0002799968
0.0004605468
-0.00027761
0.0005937165
-0.0002951168
0.0007017579
-0.0002085962
0.0007932032
-0.0001658739
0.000849236
-9.769369e-05
0.0008836219
-8.158822e-05
0.0009300373
-0.0001296541
0.0009973309
-0.000166724
0.001080045
-0.0001874716
0.001181169
-0.0002255151
0.00130638
-0.0002745862
0.001449915
-0.0003019037
0.001562318
-0.0002103992
0.001643041
-0.0001386196
0.001712329
-0.0001289939
0.001768722
-8.427851e-05
0.001800031
2.074191e-05
0.00178106
0.0001779721
0.001692016
0.0003439599
0.001466104
0.0005982265
0.001034268
0.0008861982
0.0004599169
0.001074466
0.0002796357
0.0003609768
0.0007040315
-0.001125769
0.001113503
-0.001799734
0.0001751683
0.001313094
-0.001732212
0.006136045
-0.001550492
-0.0003957164
-0.00080648
-0.002118569
-0.0002910459
-0.001081268
0.0004602047
-0.001806983
0.001177601
-0.001694015
0.001908923
-0.001750784
0.002645104
-0.001763816
0.003357948
-0.001694697
0.00405426
-0.001652633
0.004720947
-0.001584152
0.00539928
-0.001614306
0.006040896
-0.001522442
0.006697052
-0.001549996
0.007301343
-0.001403368
0.007859511
-0.001279786
0.008397664
-0.001226302
0.00891385
-0.001157714
0.009388765
-0.001038749
0.009840456
-0.0009675492
0.0102595
-0.0008753209
0.01065609
-0.0008104876
0.01102061
-0.0007250712
0.01135076
-0.0006384071
0.01164902
-0.000565192
0.01192156
-0.0005110586
0.01216312
-0.0004448171
0.0123795
-0.0003882413
0.01257121
-0.0003156237
0.01273275
-0.0002095081
0.01287998
-0.0001401836
0.0130078
-6.009173e-05
0.01310969
2.569417e-05
0.01319647
0.0001205017
0.01300137
0.0007863008
0.01305235
0.0002137583
0.01307021
0.0003197556
0.01305146
0.0004876293
0.01299057
0.0007351063
0.0128747
0.001070287
0.01266462
0.001532684
0.01226859
0.002188921
0.01154093
0.003033264
0.01038066
0.003755904
0.008784852
0.003897563
0.006617797
0.003928383
0.003413241
0.004698821
-0.000103617
0.005609287
-0.001187952
0.003894007
-3.827973e-05
-0.0002166242
0.001307096
-0.003328048
0.002392639
-0.00389484
0.002987424
-0.003939525
0.003774814
-0.005053697
0.002154077
0.001176017
-0.002830529
0.01315355
-0.005789302
0.01007586
-0.005330524
-0.0005084728
-0.003544981
-0.004835709
-0.0009356875
-0.007145709
0.001698694
-0.007195597
0.00172388
-0.00150363
-0.002155048
0.00968621
-0.004191478
0.006852351
-0.003789634
-0.0003633386
-0.003566332
-0.0007897271
-0.003070767
-0.00144403
-0.002132009
-0.002690235
-0.001109459
-0.003226431
-0.0006541304
-0.00217811
-0.002006958
0.002787914
-0.003195238
0.003907177
-0.002760377
-0.0002819469
-0.0023444
-0.001391601
-0.002471462
-1.737254e-05
-0.003038086
0.001162953
-0.003644123
0.001252222
-0.004160675
0.0007970365
-0.004665213
0.0007723584
-0.005103391
0.0009195559
-0.005350894
0.0005347417
-0.005631315
0.000140459
-0.006117937
0.0001660409
-0.006781949
0.001100169
-0.007161662
0.001959362
-0.006816906
0.001475884
-0.006156135
0.0001374555
-0.005644544
-0.0008810265
-0.005064039
-0.001379467
-0.004343344
-0.001738037
-0.003663186
-0.001823583
-0.003222902
-0.001281237
-0.002884823
-0.0008869092
-0.002540892
-0.000787196
-0.002153338
-0.0008784693
-0.001727902
-0.001023725
-0.001191788
-0.001400188
-0.0005616964
-0.001552377
0.0006260314
-0.003117769
0.001784325
-0.003197026
0.002397353
-0.001705801
0.00235202
0.0005895713
0.003441153
-0.003258874
0.00469383
-0.003312907
0.005899599
-0.003144549
0.007176248
-0.003241138
0.008359502
-0.002909023
0.009374619
-0.00240595
0.01006641
-0.001561664
0.01037801
-0.0005615986
0.01047841
0.0006207363
0.01050089
0.003135202
0.008653863
0.008950824
0.002918312
0.0133249
-0.002724039
0.008064597
-0.00419472
0.0007340467
-0.003640328
-0.001400898
-0.002117674
-0.004164965
-0.0002005194
-0.005160189
0.0002994322
-0.000488313
-0.002437441
0.005934846
-0.0054964
0.007668743
-0.005307579
0.001862145
-0.003062554
-0.004671199
-0.0003909014
-0.006864757
0.001780468
-0.005277542
0.003188007
-0.003565328
0.003977175
-0.001970319
0.004463894
-0.001264709
0.004916514
-0.001208621
0.005292963
-0.001018319
0.005575355
-0.0001107793
0.005398421
0.002531624
0.003362441
0.006214438
0.000337511
0.00614086
-0.0006479075
0.001548671
2.499204e-05
-0.002126883
0.0007216402
-0.002671872
0.001133973
-0.001650363
-0.000139504
0.002823574
-0.00107611
0.002597485
-0.000664759
-0.0003581644
0.0005638876
-0.003039975
0.001189598
-0.001656786
0.001075954
0.0005259287
0.0008453601
0.001385533
0.0008281551
0.0008088805
0.001860689
-0.002144652
0.002965619
-0.005577725
-0.001197737
0.005139195
-0.01163489
0.02936559
-0.01239797
0.001944673
-0.01137514
-0.002922616
-0.01093373
-0.00113401
-0.01049909
-0.001179786
-0.01017234
-0.0008854764
-0.009871073
-0.0008183228
-0.00961752
-0.0007002802
-0.009188339
-0.001084512
-0.00899879
-0.0005100358
-0.008827182
-0.0004527431
-0.008664255
-0.0004256945
-0.008513423
-0.0003895732
-0.008364753
-0.0003812801
-0.008222798
-0.00036354
-0.008083171
-0.0003534782
-0.007952952
-0.0003258689
-0.007824945
-0.0003143873
-0.007702133
-0.0003014123
-0.007578534
-0.000300921
-0.007460838
-0.0002845875
-0.007343603
-0.0002804882
-0.007230073
-0.0002690811
-0.007120288
-0.000255689
-0.007010279
-0.0002565488
-0.006901725
-0.0002540036
-0.006792546
-0.0002551889
-0.006687259
-0.0002437077
-0.006582878
-0.000236314
-0.006482403
-0.0002247062
-0.006378155
-0.000232664
-0.006277052
-0.0002265754
-0.006171831
-0.0002361976
-0.006071368
-0.000221789
-0.0059704
-0.0002188991
-0.005868467
-0.0002220538
-0.005765426
-0.0002243637
-0.005661221
-0.0002271246
-0.005558182
-0.0002204746
-0.005453455
-0.0002198653
-0.005475193
6.792229e-05
-0.005382376
-0.0001839749
-0.00529419
-0.0001837587
-0.005203082
-0.0001889735
-0.005115152
-0.0001805539
-0.005023631
-0.0001879668
-0.004933811
-0.0001831341
-0.004842072
-0.0001852251
-0.004750264
-0.0001849522
-0.004653842
-0.000197413
-0.004556495
-0.0002003454
-0.00445927
-0.000197607
-0.004360242
-0.000199268
-0.004259915
-0.0002006322
-0.004152941
-0.0002183199
-0.004041678
-0.0002316134
-0.00392712
-0.0002393845
-0.003810074
-0.0002458933
-0.003683913
-0.0002702531
-0.003553901
-0.000282509
-0.003413876
-0.0003103803
-0.003264213
-0.0003398719
-0.003100447
-0.0003805321
-0.00291864
-0.0004348509
-0.002704661
-0.0005337135
-0.002461263
-0.0006304002
-0.002186719
-0.000735532
-0.001880165
-0.0008852715
-0.001636752
-0.0008953272
-0.001589212
-0.0003090956
-0.001652599
0.0008182952
-0.001670886
0.001492221
-0.0004028987
-0.003234067
0.0006755235
-0.003167173
0.001234153
-0.001403884
0.001568703
-0.0006638648
0.001807081
-0.0004357581
0.00203025
-0.0004064138
0.002228223
-0.000350394
0.002392189
-0.0002749552
0.002536923
-0.0002442738
0.002685376
-0.0002683108
0.002824239
-0.0002541968
0.002956827
-0.0002419643
0.003076718
-0.0002143054
0.003191111
-0.0002044516
0.00329837
-0.0001924361
0.00340464
-0.0001946757
0.003506573
-0.0001859513
0.003602183
-0.0001704623
0.003693925
-0.0001638421
0.003785343
-0.0001666812
0.003873217
-0.0001587819
0.003957098
-0.000150716
0.004042393
-0.0001565257
0.004121972
-0.0001439932
0.004203182
-0.0001522728
0.004285748
-0.0001592861
0.00436464
-0.0001461948
0.004439021
-0.0001342093
0.004514566
-0.0001385154
0.004588516
-0.0001391116
0.004666563
-0.0001345351
0.004648486
8.01915e-05
0.004732366
-0.0001607469
0.004817333
-0.0001721437
0.004900356
-0.0001700864
0.004982717
-0.0001694363
0.005065428
-0.000172642
0.005147439
-0.0001688931
0.005225686
-0.0001587788
0.005305759
-0.0001650791
0.005385848
-0.0001711712
0.005470136
-0.0001820184
0.005548853
-0.0001651712
0.005627834
-0.0001633406
0.005706769
-0.0001669208
0.00578786
-0.0001741018
0.005867983
-0.0001737039
0.005951584
-0.0001855752
0.006036425
-0.000189847
0.006120959
-0.0001892485
0.006207766
-0.0001935385
0.006290413
-0.0001831559
0.006380785
-0.0002072137
0.006470632
-0.0002105029
0.00656414
-0.0002193441
0.006658606
-0.0002254308
0.006755944
-0.0002330073
0.006856861
-0.0002478993
0.006964495
-0.0002683754
0.007072241
-0.0002700145
0.007186177
-0.0002893182
0.007310225
-0.0003219611
0.007446141
-0.0003674487
0.007771879
-0.0008166167
0.007954817
-0.0005061973
0.008170692
-0.0005886211
0.008409717
-0.0006540997
0.008728371
-0.0008652738
0.009042977
-0.0008323543
0.009795479
-0.002174237
0.001435977
-0.0005288354
0.001904031
-0.004609262
0.0005520713
-0.004248079
0.001214556
-0.002066369
0.001666644
-0.001115953
0.001997291
-0.0007664051
0.002298221
-0.0007073429
0.002561596
-0.0006137696
0.002779201
-0.0004925601
0.002968465
-0.0004335373
0.003158493
-0.0004583396
0.003334687
-0.0004303908
0.003502539
-0.0004098156
0.003654437
-0.0003662033
0.003798719
-0.0003487343
0.003933881
-0.0003275981
0.004066912
-0.0003277062
0.004194905
-0.0003139449
0.00431465
-0.0002902071
0.00442989
-0.0002790821
0.004544151
-0.0002809424
0.004654153
-0.0002687838
0.004759213
-0.0002557753
0.004866038
-0.0002633516
0.004965586
-0.0002435414
0.005067036
-0.0002537219
0.005170223
-0.000262473
0.005268468
-0.0002444406
0.005362141
-0.0002278816
0.005456643
-0.0002330177
0.005549177
-0.0002316455
0.005647828
-0.0002331864
0.005632397
9.562267e-05
0.005734976
-0.0002633262
0.005840845
-0.0002780129
0.005942994
-0.0002722346
0.006044445
-0.0002708882
0.006146348
-0.0002745442
0.006247129
-0.0002696743
0.006343567
-0.0002552175
0.006441899
-0.0002634103
0.006540212
-0.0002694842
0.006643328
-0.0002851351
0.006739798
-0.0002616407
0.006836612
-0.0002601542
0.006933499
-0.0002638085
0.007032497
-0.0002730997
0.007130257
-0.0002714641
0.007232176
-0.0002874938
0.007335221
-0.0002928921
0.00743797
-0.0002919977
0.007543509
-0.000299077
0.007643567
-0.000283214
0.007753336
-0.0003169827
0.007861563
-0.0003187306
0.007973925
-0.0003317058
0.008087673
-0.0003391785
0.008203797
-0.0003491311
0.008324703
-0.0003688054
0.008452738
-0.000396411
0.008580515
-0.0003977916
0.008715468
-0.0004242712
0.008862215
-0.0004687074
0.009210328
-0.0007155618
0.009408308
-0.001014597
0.009620994
-0.0007188836
0.009875264
-0.0008428913
0.01016525
-0.0009440894
0.01054183
-0.001241854
0.01098015
-0.001270673
0.01167864
-0.002872728
0.01139327
0.001721352
-0.0148063
0.01435233
0.002398635
-0.01384503
-0.003883879
-0.01323843
-0.001740611
-0.01272674
-0.001691479
-0.01233296
-0.001279256
-0.01197801
-0.001173274
-0.01168348
-0.0009948062
-0.01140848
-0.001359519
-0.01095328
-0.0009652338
-0.01075431
-0.0006517091
-0.01056523
-0.0006147808
-0.01039065
-0.0005641476
-0.01021846
-0.0005534701
-0.01005397
-0.0005280356
-0.009892175
-0.0005152688
-0.009740927
-0.0004771165
-0.009592486
-0.0004628282
-0.009449876
-0.0004440226
-0.009306196
-0.0004446007
-0.009169329
-0.0004214553
-0.009033097
-0.0004167202
-0.008900608
-0.0004015701
-0.008772883
-0.0003834132
-0.008644634
-0.0003847981
-0.008518143
-0.000380495