/*--------------------------------*- C++ -*----------------------------------*\
| =========                 |                                                 |
| \\      /  F ield         | OpenFOAM: The Open Source CFD Toolbox           |
|  \\    /   O peration     | Version:  2406                                  |
|   \\  /    A nd           | Website:  www.openfoam.com                      |
|    \\/     M anipulation  |                                                 |
\*---------------------------------------------------------------------------*/
FoamFile
{
    version     2.0;
    format      ascii;
    arch        "LSB;label=32;scalar=64";
    class       volScalarField;
    location    "5";
    object      p;
}
// * * * * * * * * * * * * * * * * * * * * * * * * * * * * * * * * * * * * * //

dimensions      [0 2 -2 0 0 0 0];

internalField   nonuniform List<scalar> 
15536
(
-72.8052
-70.5724
-66.37329
-60.6465
-54.39713
-48.6422
-43.37412
-38.51607
-34.40085
-31.03843
-28.23573
-26.11161
-22.64177
-17.21201
-10.91534
-6.302205
-4.184189
-3.731667
-4.82453
-6.330106
-5.793012
-2.02965
5.261026
12.10178
15.95808
16.69443
10.98566
2.602602
-8.219703
-31.18174
-76.4909
-115.5675
-103.9057
-41.68851
-21.91376
-46.79697
-70.83717
-79.88609
-76.06374
-72.01557
-75.99324
-81.58924
-85.60428
-87.84148
-88.93481
-88.90363
-87.9133
-85.9105
-83.36399
-80.42794
-76.78458
-72.53289
-67.64911
-62.37347
-56.65735
-50.56935
-44.43148
-38.17621
-31.57609
-24.80459
-18.13845
-11.59849
-5.085664
1.346384
7.565409
13.65259
19.44747
24.92891
29.99215
34.63375
38.81541
42.53677
45.7642
48.42387
50.46703
51.99512
52.88212
53.17406
52.91964
52.17952
50.67571
48.50985
45.75952
42.42265
38.52264
34.07888
29.16042
23.67857
17.79857
11.55841
4.8058
-2.263492
-9.590707
-17.36906
-25.30664
-33.19364
-41.2675
-49.51345
-57.73136
-66.01965
-74.2111
-82.10943
-89.67324
-97.00187
-104.2323
-111.0383
-117.4
-123.2755
-128.6901
-133.732
-138.0921
-141.7006
-144.6251
-146.8513
-148.2811
-148.656
-147.8092
-145.3575
-141.1696
-136.4625
-134.045
-136.3099
-158.0395
-171.6328
-150.7354
-117.655
-96.69744
-79.92872
-54.90227
-63.96415
-149.3142
-188.2653
-158.1616
-116.3811
-86.31877
-70.02338
-58.53276
-46.45908
-33.31909
-25.5026
-24.9439
-25.99662
-29.80556
-38.29545
-45.53715
-51.97906
-56.93036
-62.93242
-64.13473
-60.06798
-59.36723
-60.60473
-61.78064
-64.055
-67.71538
-71.078
-72.93607
-72.47921
-70.27607
-66.13479
-60.4761
-54.29047
-48.57873
-43.31847
-38.44812
-34.29333
-30.88522
-28.03472
-25.85808
-22.40975
-17.04124
-10.8084
-6.2361
-4.155599
-3.727463
-4.836782
-6.342876
-5.803564
-2.04942
5.255643
12.147
16.00111
16.64763
10.91886
2.588781
-8.152788
-31.05995
-76.37398
-115.5593
-104.0737
-41.68497
-21.95431
-46.93758
-71.07513
-79.90587
-76.03672
-71.98487
-75.60142
-80.85589
-84.59546
-86.6389
-87.64244
-87.57408
-86.56774
-84.56025
-82.01776
-79.10463
-75.49065
-71.27646
-66.43363
-61.20625
-55.54585
-49.51613
-43.43742
-37.24621
-30.71571
-24.01039
-17.41106
-10.93881
-4.491274
1.876597
8.032391
14.05611
19.78948
25.21461
30.22625
34.81937
38.95781
42.64119
45.83548
48.46952
50.4913
52.00423
52.88249
53.17111
52.91695
52.18014
50.68643
48.53985
45.81454
42.50811
38.64428
34.2427
29.37116
23.9419
18.12147
11.94068
5.253097
-1.743273
-8.999834
-16.70932
-24.56763
-32.3762
-40.3733
-48.5385
-56.67605
-64.88518
-72.99903
-80.82008
-88.31047
-95.57418
-102.7436
-109.4888
-115.7982
-121.6242
-126.997
-132.0063
-136.3366
-139.9282
-142.8559
-145.0963
-146.5582
-146.992
-146.2694
-144.0816
-140.2837
-135.9968
-133.9102
-136.2139
-157.8713
-171.6443
-150.831
-117.6848
-96.80065
-80.06078
-55.00172
-64.02934
-149.546
-188.411
-157.824
-116.0015
-86.01807
-69.828
-58.46208
-46.50527
-33.40077
-25.52339
-24.88782
-25.94741
-29.79416
-38.27945
-45.53515
-51.98434
-56.95708
-62.9706
-64.15367
-60.05611
-59.37504
-60.61596
-61.77402
-64.01711
-67.57573
-70.86016
-72.6378
-72.3778
-70.12598
-65.96574
-60.32586
-54.15765
-48.44107
-43.15831
-38.19849
-34.02704
-30.70653
-27.87282
-25.76092
-22.30245
-16.94579
-10.73269
-6.183847
-4.148618
-3.751592
-4.885193
-6.398976
-5.865125
-2.126519
5.154617
12.12303
15.99831
16.57715
10.81635
2.567001
-8.084569
-31.03052
-76.65918
-116.4204
-105.3261
-41.70015
-21.62715
-46.67496
-70.70501
-79.56124
-75.72264
-71.87844
-75.17277
-80.0643
-83.67376
-85.74151
-86.82173
-86.77935
-85.81192
-83.82457
-81.29475
-78.40853
-74.80543
-70.61434
-65.79335
-60.59613
-54.97186
-48.95645
-42.90421
-36.75311
-30.24762
-23.57146
-17.00309
-10.56883
-4.158088
2.181955
8.299029
14.29499
19.99555
25.39052
30.37347
34.9397
39.05138
42.71065
45.88309
48.50123
50.50499
52.00653
52.87765
53.1628
52.90906
52.17559
50.68957
48.55854
45.85072
42.56475
38.72508
34.34965
29.50801
24.10469
18.31766
12.17174
5.514114
-1.44444
-8.661413
-16.33751
-24.15715
-31.92033
-39.88193
-48.01249
-56.10353
-64.28813
-72.3654
-80.15508
-87.61564
-94.83445
-101.9741
-108.6797
-114.9628
-120.7607
-126.1065
-131.1003
-135.4026
-138.9642
-141.8637
-144.076
-145.5032
-145.8941
-145.0983
-142.8779
-139.3162
-135.4025
-133.5471
-136.4085
-158.0814
-171.9006
-151.0327
-117.7812
-96.76526
-79.89049
-54.70173
-64.48098
-151.5456
-189.7256
-157.9237
-115.7584
-85.733
-69.66942
-58.45106
-46.66864
-33.63201
-25.63364
-24.88108
-25.92461
-29.81798
-38.28129
-45.54745
-51.99292
-57.02622
-63.06545
-64.21339
-60.00377
-59.34188
-60.57951
-61.75932
-64.03687
-67.51594
-70.70504
-72.49625
-71.95563
-69.76327
-65.64351
-60.0449
-53.86804
-48.10543
-42.73612
-37.81979
-33.68501
-30.48123
-27.62525
-25.49979
-22.13288
-16.86235
-10.68904
-6.157911
-4.168917
-3.809855
-4.980379
-6.509896
-5.989463
-2.276363
4.958635
12.04082
16.1609
16.6019
10.74965
2.595017
-8.014613
-31.07967
-77.27572
-117.6152
-107.3302
-42.23459
-21.43838
-45.84707
-68.85208
-77.56907
-74.58277
-71.53597
-74.52921
-78.9528
-82.31273
-84.17834
-85.1091
-85.01731
-84.06419
-82.09501
-79.58848
-76.74554
-73.20957
-69.09163
-64.34149
-59.21589
-53.67227
-47.74018
-41.76421
-35.699
-29.29142
-22.69182
-16.20086
-9.850244
-3.522453
2.745158
8.782637
14.71073
20.34341
25.68079
30.60648
35.11964
39.18497
42.80496
45.94283
48.53743
50.51533
52.0025
52.8652
53.1465
52.89357
52.16305
50.68415
48.57519
45.89231
42.63644
38.8347
34.50392
29.71578
24.36232
18.64306
12.5638
5.971394
-0.9005072
-8.037396
-15.64268
-23.36066
-31.0286
-38.90533
-46.93436
-54.92519
-63.01458
-70.99366
-78.67565
-86.02981
-93.16702
-100.2227
-106.8307
-113.0343
-118.7455
-124.0234
-128.9558
-133.2113
-136.726
-139.5826
-141.7899
-143.24
-143.679
-143.0744
-141.114
-137.9417
-134.5376
-133.0843
-136.59
-157.1509
-170.1028
-149.8223
-117.3516
-96.34252
-79.16816
-53.78292
-65.78132
-155.149
-191.8715
-158.3927
-115.5867
-85.39236
-69.50087
-58.48623
-46.93366
-33.99575
-25.79937
-24.83897
-25.92652
-29.87355
-38.26613
-45.56046
-52.01518
-57.14563
-63.2278
-64.30922
-59.96113
-59.24801
-60.47342
-61.75409
-64.0716
-67.40862
-70.45219
-72.15152
-71.67688
-69.40072
-65.2662
-59.69779
-53.47741
-47.64241
-42.26665
-37.40172
-33.30538
-30.24942
-27.39874
-25.32311
-21.99792
-16.81987
-10.68721
-6.162192
-4.223538
-3.917686
-5.147846
-6.709032
-6.213527
-2.54079
4.682619
11.98735
16.54064
16.83051
10.80063
2.704041
-7.919098
-31.34125
-78.17537
-119.0618
-109.5109
-44.17531
-22.3291
-45.35813
-66.43194
-74.66394
-72.93278
-70.99007
-73.78596
-77.84939
-81.0539
-82.85369
-83.89333
-83.81662
-82.88453
-80.92191
-78.3645
-75.56936
-72.01788
-67.92746
-63.18321
-58.09865
-52.61449
-46.70286
-40.77172
-34.78534
-28.43785
-21.88349
-15.45206
-9.179996
-2.92201
3.29419
9.254319
15.1282
20.69755
25.97745
30.84212
35.30603
39.32416
42.90246
45.998
48.56634
50.51553
51.98583
52.83997
53.11732
52.86558
52.13538
50.66064
48.58335
45.93368
42.71179
38.95046
34.66397
29.93097
24.62485
18.97953
12.96111
6.417771
-0.3611805
-7.419084
-14.98519
-22.6148
-30.18957
-38.00644
-45.96623
-53.86127
-61.90043
-69.81742
-77.43255
-84.72683
-91.79945
-98.82227
-105.3675
-111.5452
-117.2153
-122.4588
-127.4128
-131.6119
-135.1239
-138.0225
-140.224
-141.6699
-142.0923
-141.3853
-139.447
-136.5382
-133.549
-132.5447
-136.1275
-153.3191
-163.5449
-146.0548
-116.1351
-95.66055
-78.50048
-53.62616
-68.70552
-159.536
-194.7342
-159.3281
-115.5632
-85.02324
-69.31574
-58.52449
-47.17431
-34.36789
-25.86323
-24.59122
-25.89006
-29.95077
-38.23257
-45.60466
-52.06997
-57.31437
-63.47868
-64.44854
-59.99311
-59.10768
-60.36148
-61.78321
-64.10424
-67.30542
-70.25849
-71.90734
-71.33301
-69.01691
-64.87717
-59.34141
-53.04997
-47.12932
-41.762
-36.95513
-32.82816
-29.96738
-26.97711
-25.07272
-21.88742
-16.84656
-10.74375
-6.215632
-4.342677
-4.109271
-5.423595
-7.044668
-6.588683
-2.983343
4.334194
11.98878
17.11266
17.29699
11.02856
2.872892
-8.012253
-31.78637
-79.00989
-120.3123
-111.1918
-47.92484
-25.36694
-45.81805
-64.18408
-71.81092
-71.14284
-70.15021
-72.69452
-76.31809
-79.25867
-80.78197
-81.68652
-81.48326
-80.63278
-78.72028
-76.20726
-73.54647
-70.0829
-66.1088
-61.44846
-56.44762
-51.06561
-45.2297
-39.4031
-33.54051
-27.28295
-20.8107
-14.48639
-8.315176
-2.154882
3.987488
9.83681
15.64092
21.12084
26.31276
31.1099
35.52371
39.48239
43.00754
46.04506
48.59016
50.50261
51.94782
52.79469
53.06724
52.8164
52.08487
50.61623
48.57439
45.9703
42.79268
39.08064
34.84851
30.17585
24.91859
19.38155
13.44907
6.945505
0.2787369
-6.635897
-14.14356
-21.66843
-29.09918
-36.80674
-44.67314
-52.43911
-60.36809
-68.17126
-75.66727
-82.82564
-89.78646
-96.73125
-103.1331
-109.2205
-114.7663
-119.9123
-124.7794
-128.883
-132.2895
-134.9982
-137.198
-138.6609
-139.1287
-138.7313
-137.0435
-134.58
-132.1387
-131.5864
-134.8567
-148.088
-155.9613
-141.3136
-114.6429
-95.23686
-78.75422
-55.40102
-73.9789
-164.0925
-197.892
-160.743
-115.695
-84.75986
-69.02099
-58.3577
-47.18358
-34.59274
-25.64258
-23.96929
-25.73585
-29.99734
-38.21041
-45.69036
-52.16714
-57.55688
-63.8522
-64.65143
-60.16294
-59.04989
-60.32077
-61.82305
-64.10124
-67.16577
-70.01512
-71.60068
-71.02743
-68.66793
-64.50222
-58.93945
-52.57977
-46.55816
-41.15956
-36.4174
-32.20561
-29.68889
-26.58615
-24.81848
-21.83701
-16.99843
-10.91157
-6.364628
-4.563893
-4.419744
-5.856512
-7.563413
-7.170525
-3.695661
3.883144
12.06848
17.70828
17.94722
11.45111
2.97682
-8.272335
-31.78759
-79.13984
-120.519
-111.62
-52.42125
-30.31866
-46.87736
-62.06804
-69.07841
-69.29553
-69.15409
-71.51655
-74.76637
-77.57438
-78.902
-79.91973
-79.72621
-78.84359
-76.86788
-74.24292
-71.67489
-68.1808
-64.30586
-59.66127
-54.67661
-49.41822
-43.6973
-37.93286
-32.13204
-26.00963
-19.66643
-13.42152
-7.29749
-1.311184
4.762537
10.47726
16.21351
21.56991
26.67354
31.46086
35.76976
39.63851
43.09096
46.07128
48.63732
50.47199
51.88636
52.72308
52.98609
52.73708
52.02404
50.57441
48.52118
45.95106
42.83347
39.18932
35.05196
30.46024
25.22738
19.80645
14.01553
7.599157
0.9762553
-5.824892
-13.15818
-20.59476
-27.92277
-35.49495
-43.17593
-50.89811
-58.74114
-66.36148
-73.78317
-80.78719
-87.64457
-94.55567
-100.8156
-106.8756
-112.2993
-117.4204
-122.3403
-126.3487
-129.7682
-132.6799
-134.9394
-136.3986
-136.8529
-136.3436
-134.7268
-132.6003
-130.6098
-130.3054
-133.1192
-143.0611
-148.6737
-136.366
-112.9702
-94.90064
-79.90286
-59.81051
-81.37016
-168.4273
-200.4187
-162.603
-116.3079
-84.42519
-68.66617
-57.91917
-46.82005
-34.43059
-25.12119
-22.89876
-25.40861
-29.99099
-38.19232
-45.86182
-52.36661
-57.94043
-64.38616
-65.00692
-60.46394
-59.18646
-60.33077
-61.85075
-64.09092
-67.05477
-69.81672
-71.34533
-70.85113
-68.50741
-64.04724
-58.44393
-52.13423
-45.92859
-40.41859
-35.86998
-31.44444
-29.38836
-25.97633
-24.53036
-21.92093
-17.32636
-11.36395
-6.718733
-4.899892
-4.901598
-6.489615
-8.356425
-8.103182
-4.840378
3.206793
12.02839
18.14212
18.71269
11.62944
2.855509
-8.458027
-30.58643
-76.30143
-115.2563
-107.7366
-56.20788
-35.90403
-47.87185
-59.89636
-66.26347
-67.17314
-67.74402
-69.84747
-72.60508
-75.32506
-76.10475
-77.01848
-76.75695
-76.02485
-74.2908
-71.48452
-69.10527
-65.74244
-62.04232
-57.36883
-52.45966
-47.55135
-41.99006
-35.99436
-30.36998
-24.63378
-18.45149
-12.04116
-6.041796
-0.4503191
5.650898
11.15169
16.86246
21.9839
27.16596
31.95029
36.00866
39.76145
43.11565
46.0742
48.67573
50.3785
51.80969
52.61907
52.86806
52.63308
51.96358
50.49841
48.42546
45.84182
42.79913
39.23625
35.21758
30.82558
25.57683
20.23694
14.61831
8.543574
1.971905
-5.098714
-12.10331
-19.16105
-26.64093
-34.13358
-41.32194
-48.88262
-57.04445
-64.15842
-71.58746
-78.39637
-85.04932
-91.95593
-97.92292
-104.0262
-109.154
-114.1054
-119.0791
-122.8936
-126.2011
-128.8033
-130.9294
-132.4548
-132.9043
-132.7484
-131.4043
-129.8786
-128.4385
-128.4181
-130.8763
-138.1563
-141.3916
-130.87
-111.3375
-94.92099
-81.47842
-66.30037
-89.51837
-170.7781
-200.0151
-163.8356
-117.3832
-83.70059
-68.35137
-57.26681
-46.21153
-33.93176
-24.16074
-21.62357
-24.90534
-30.03562
-38.02572
-46.09206
-53.18845
-58.46411
-64.76475
-65.31904
-60.8257
-59.49102
-60.36123
-61.87347
-64.05135
-66.92347
-69.66101
-71.19416
1.750249
1.176088
-25.40148
-18.60937
13.8417
-15.72141
0.2931545
2.342724
14.06196
-2.211509
1.004682
3.389067
-1.107764
0.3115467
0.1008336
4.721929
0.7882894
-4.072989
1.266426
2.326584
-45.20438
2.712144
3.970965
-2.437223
0.7194298
2.312597
4.33794
-1.833062
-8.220046
1.03554
2.414071
-8.746314
2.848578
1.894466
0.2652063
-6.118367
-5.045162
0.2028423
-3.507557
-7.52331
-26.81113
2.710672
0.9333262
3.172262
36.03901
0.8018285
-0.2792529
0.4004488
-9.40189
-1.868395
-1.249744
-6.360599
-9.719059
0.7584142
0.1672203
25.76704
-7.944672
2.828645
-15.76495
-23.92518
-1.760236
0.02146346
-23.50971
2.201293
1.197795
2.240943
-20.60581
1.31622
1.802859
2.210966
-0.8051871
-1.831016
-8.378811
-60.39069
22.83785
0.8104568
4.923318
-3.619323
2.362454
1.102723
-24.14672
0.2132782
4.634091
-0.1349691
-14.55853
0.3859147
2.959017
2.509423
-26.9118
-4.040241
-21.19803
21.93271
-25.53613
0.399355
0.7150277
3.730336
-19.95515
6.162297
-25.24933
0.8051473
2.469167
2.409577
-0.0426022
-104.7851
0.6337485
-8.856806
-0.07293497
0.538288
0.6241358
-6.216758
3.051123
0.1356768
-0.205209
8.053585
-13.2932
-0.5586656
0.2458012
1.539687
19.69113
0.4569632
2.83276
0.6312586
-0.7147473
2.995098
3.438127
0.7677094
-0.5811063
-11.28197
1.034822
2.305652
0.393866
-14.34485
0.7987872
-0.1471323
-0.5339019
-40.57603
0.2761676
10.20332
2.434047
0.3051166
-18.11822
0.5142806
-78.63142
1.338997
-2.927078
-1.533828
2.18486
-49.96284
1.010771
-0.7123165
2.306335
-10.35532
-74.49732
2.255711
-18.07123
-26.94682
1.090662
0.3000766
0.8789198
-44.62526
1.957491
-43.7987
-1.42456
2.396819
1.889364
-15.99702
-27.30836
2.527193
-21.5559
3.942502
0.5467149
4.693066
-0.09435957
-17.42763
-7.578783
-50.54637
4.192286
0.6879922
-26.83594
-1.403284
17.65963
3.555855
1.614162
0.5794514
3.140431
-56.13379
0.5991753
0.6499824
-13.15956
2.198876
-0.2570684
2.331725
-12.57912
-2.553911
-0.4461024
0.4176267
2.270851
0.2361882
-7.860923
-41.51349
2.336937
-29.47739
1.568335
-26.67176
0.1877617
-1.661001
-9.61192
2.135834
-11.48369
-4.154457
2.149233
-7.241094
-8.098884
-3.254378
-0.1399267
-0.6224558
-13.98536
2.379472
2.532273
1.241822
2.239566
-9.417308
4.396498
-8.748988
-3.720105
1.194131
1.345513
8.686258
-2.630681
21.52006
-0.9413877
-10.77603
6.35226
3.343532
-99.14034
0.540499
29.51296
-6.754446
3.082648
-0.02290015
-0.2315059
2.274954
3.898181
-4.056881
2.136184
-19.14388
1.255861
-30.95414
0.3011029
0.3472382
-41.99092
1.254991
2.897874
2.352233
4.201307
-34.22028
1.323381
0.5080286
-38.25568
-4.484592
1.448683
0.1690759
-9.567891
-18.16264
-0.4410081
3.969649
0.3492132
0.9871171
-3.123442
-32.42627
0.4407414
0.8971105
13.90272
-1.316108
-0.2486187
4.791387
3.291353
-13.68113
-44.72593
0.1515932
1.438574
1.1522
0.9254755
2.374892
2.178956
1.966504
35.82569
-0.4040766
3.550967
3.063409
4.139127
2.928673
0.6126295
1.194402
-28.06556
0.2184906
-13.31003
-1.365754
0.6159548
-0.134569
-52.8898
2.105973
-6.590497
9.187443
-0.476983
0.9747591
2.920285
1.139915
2.010609
2.556515
-2.298102
3.489156
1.777768
0.3780801
-0.382992
-16.06283
35.89849
-82.34064
-25.38626
-53.7198
-0.9488486
-0.423943
3.099966
-0.1851667
0.03404841
-13.56
1.209041
0.1255012
0.9272091
4.300534
18.5894
-0.8438653
-9.960321
-85.95165
1.610339
3.685461
1.943066
-4.762094
-6.521463
-8.858578
-34.09454
-2.535222
0.7684719
2.214789
-16.75441
4.574368
-9.96812
-0.4132581
-14.04073
0.1491841
-1.85327
0.4146335
15.33097
0.6790834
-1.458103
-43.75518
-62.77175
-1.102842
1.976422
1.959389
0.7417992
-6.611795
-0.3208579
3.480218
2.347784
3.690333
3.596272
2.363645
2.354192
3.083393
-4.355117
14.71192
-47.09634
1.018816
3.57897
1.464307
2.168749
2.442271
-0.6482867
3.135319
2.225355
3.265403
1.015352
-5.640916
1.183447
0.7343455
0.6062367
37.83548
3.241246
2.923985
-9.942929
0.2281794
2.579163
-16.93413
1.871757
-1.354812
1.02813
-4.965407
2.222205
0.8497228
3.421034
2.312775
-36.38522
-0.820626
2.924012
3.124069
-25.98987
-59.24671
3.99258
0.8925588
1.25192
0.7831613
3.58088
2.438658
3.438495
-1.051125
1.912695
-16.54377
0.581162
-38.74952
2.311333
0.9121215
6.097073
1.677395
-0.4584818
-33.05719
0.3904033
3.255465
-63.94427
-12.00968
-24.75382
1.93267
-7.949752
1.665242
1.197063
1.539261
2.028218
-7.448469
0.7509201
2.36193
2.428757
3.297808
1.375704
0.7861955
-6.212138
2.162608
0.5714078
-4.474237
-24.28955
-0.3431709
2.363274
-33.63829
-0.3769671
-2.457141
1.369943
2.364352
-1.657653
6.207133
2.080897
-25.0188
0.191401
-27.83545
2.57699
1.554682
1.046825
1.965621
26.19939
0.6759414
5.75942
-2.267732
-13.14194
-1.316643
2.088685
9.209617
-0.2401653
-1.864956
-8.401904
-23.13079
0.8580739
0.2486568
-7.413462
0.02224298
2.225258
0.6197754
0.4690146
1.463219
-5.154224
18.06496
0.3132131
3.675346
2.266049
-30.11986
1.675022
-4.534494
-23.95775
2.317444
1.919983
4.779499
1.457673
4.884539
2.618878
0.6335344
0.5288346
-6.44072
2.899415
2.090241
2.355537
-1.209164
-10.48503
-19.87288
-30.95822
7.348297
18.9612
-2.906154
1.991979
2.300607
0.9414822
2.042851
3.265047
1.449836
2.327977
0.7822033
-5.300689
2.229304
0.7272592
-0.5208168
0.4643895
-0.1523614
0.4384094
0.1850898
-32.65929
3.097349
-32.89094
0.302446
5.327728
5.233886
4.279366
0.4270766
2.222728
0.8127527
5.083786
2.192057
0.339181
-0.3048656
-31.87389
4.065257
4.480238
2.638846
-0.4180598
8.208392
2.247474
4.366587
1.329442
-4.425313
-20.2415
3.644157
3.135343
-19.06025
17.36339
0.8551272
0.5021308
-1.004406
2.599132
2.496453
0.3306438
2.199913
2.727981
11.98289
34.1508
-0.7351719
2.126555
8.585505
4.319207
-72.20446
0.4386243
4.186105
0.6178041
4.629955
1.492713
2.278978
-0.3329178
2.209763
7.26991
0.529963
-6.925794
-28.1147
0.8663692
-0.2599494
-96.44862
-5.449833
-1.269344
-3.2905
1.976579
0.03979794
2.069735
0.4293204
2.338316
-37.68349
2.653915
2.181773
2.131268
3.264133
-0.5677752
1.044863
-0.6967598
-6.951658
-2.530072
0.5966725
-11.51921
-0.3934848
5.260069
1.885812
0.4891513
2.345449
10.33386
-10.34264
-0.6127804
4.035228
-7.008255
5.885399
0.08959683
0.7865556
2.294102
-2.504706
0.6504866
19.28739
3.444519
0.2377695
1.739097
-3.218945
1.240397
-15.82331
-18.68387
-32.14816
-59.53203
-11.33801
-11.89972
2.341512
-0.9034156
2.285036
2.082689
-4.299203
1.050687
-12.39974
2.158322
0.7811288
0.9950769
-55.55248
1.157019
27.06051
5.847081
-22.40698
-4.70118
-10.57513
7.999371
-3.899835
-6.102525
0.5061991
3.387646
-4.859647
2.524314
3.40646
0.5042033
1.114599
2.26767
0.1434185
-16.63027
4.70945
1.011579
0.8549067
1.935751
0.8954065
-105.9467
-0.4705517
1.400763
8.528355
-26.17894
-11.53352
-0.0008038799
4.74778
14.58641
8.333764
3.107467
-6.64154
2.253023
-8.987052
1.315909
-3.909197
3.99531
2.22161
-13.00282
-4.911775
-62.10418
2.203784
1.848527
0.6963173
-55.87969
2.353557
2.459317
2.67002
-1.109531
-14.2773
5.4224
0.2856236
4.651865
-23.183
3.805335
2.073468
-11.47286
-5.536507
1.154321
0.6357065
2.316449
0.7707328
1.921405
-0.2359374
3.265832
-66.63294
1.712642
-4.967244
0.6875226
0.4308567
-0.08114462
2.008873
2.067169
2.351612
0.6000852
-32.32538
2.153374
1.943307
2.973744
2.537356
2.252718
0.7723942
1.777509
1.140974
0.4348869
6.047953
-9.404466
3.001342
1.051656
-4.527273
1.613633
0.4325551
1.862538
1.995744
-61.14643
4.207835
7.104734
11.95779
-13.46878
-3.799364
-8.23202
-10.96903
0.3415603
-36.59829
-0.9056228
-3.129128
-8.16709
-7.913067
-5.852059
1.924265
3.767447
12.99628
1.536355
0.6152124
-32.27764
0.4264793
2.342641
2.048521
-13.63561
24.84302
-2.128969
2.934794
4.007371
3.110308
1.271994
0.4475361
-0.940592
2.2665
1.264893
-2.037991
2.299431
4.422312
3.633677
2.816844
2.650076
1.38226
2.05956
-0.02563964
-1.175781
-23.73367
32.34282
1.401923
0.4206393
0.1825354
0.8571022
0.384815
1.150139
-86.92753
0.2138917
-51.45824
-1.939495
-0.9698189
-0.9884574
0.4926114
1.386381
0.7503048
2.632734
1.285857
2.32734
0.03123545
-38.28477
2.466365
-1.620377
2.947485
1.123259
-1.399326
4.14482
-10.47229
-4.435842
18.31008
2.609893
0.5497411
-0.5326858
-0.4196694
2.467057
2.329477
3.861423
2.346464
-21.72724
0.6633787
9.219314
-46.17589
1.694467
-2.453192
-2.983678
0.3818716
0.6345654
2.234756
1.493012
2.626936
1.586204
5.175055
3.700309
4.762362
5.021331
-1.05909
-1.124782
30.30561
0.7324258
-3.057181
-11.9272
-43.79227
3.954926
2.022053
1.019418
2.404429
32.89756
-0.8152455
1.219627
-0.004811206
0.5247939
-3.576089
2.460692
1.646668
1.797693
-8.769421
-19.85469
1.391237
1.696106
-11.42168
0.3892116
-0.3237938
1.877151
-15.18494
6.615645
29.25797
-5.666304
2.325504
-0.9092981
-1.694235
-2.856682
14.17918
-2.214832
1.98993
-0.6272424
-0.8812299
2.413512
0.06850869
1.932569
-0.9435165
-8.959718
-15.11135
4.678953
-7.999132
-0.5813284
0.2121837
2.360333
9.701572
-1.512774
-1.107639
0.6204782
8.015042
-26.46464
8.393137
0.7372651
0.4469091
-3.589348
31.2592
-2.760611
1.353071
0.2954636
-52.54767
1.961432
0.4037387
6.419035
0.8032539
0.1042202
-9.54427
1.209363
2.631955
-15.35698
-18.4796
0.206086
10.32852
-8.516328
-35.65483
4.592187
-53.9631
-0.585104
-1.024748
-7.961727
0.516062
-2.096885
-42.13622
0.123793
0.7080509
1.260651
2.200158
0.2039931
2.130749
-59.84218
2.55536
20.10418
0.6287707
-0.06523442
-3.033459
15.14846
-15.71201
0.247358
-0.04860266
3.377493
-4.638918
-2.956782
-4.008876
0.01009902
0.6816963
2.41631
-80.33117
-95.92463
0.5734687
1.986418
4.123186
0.5059622
2.336236
4.073174
1.619523
0.5515884
2.379006
2.313725
0.4611164
9.285017
1.860646
-18.86905
0.7555222
-0.05414375
-89.40574
1.839453
0.5958481
1.914463
-38.24555
-3.450889
-3.73872
3.286076
-4.016102
-20.54784
37.49709
49.68942
1.714229
2.306172
-2.826222
8.18523
1.847214
0.2759198
10.70688
-43.17945
1.891012
1.130166
-1.215315
3.383017
0.672945
4.192776
-3.438848
-12.24375
-67.60057
-0.7461269
3.421834
0.7244962
2.583863
3.66361
-44.39082
1.20309
1.977046
0.2310359
3.067128
0.05988945
1.230816
-16.91411
-8.201287
1.899454
2.202504
2.308581
1.865761
-1.781876
2.074796
0.2783526
-34.27498
0.47499
-37.43067
-70.3358
-0.4699025
-1.035074
-52.33656
-72.62195
3.477055
1.539929
2.194494
1.479372
3.411401
-1.765541
-0.0005928511
0.8162024
1.199005
2.190272
2.018186
-2.404566
0.1254573
2.126282
2.525211
0.5636796
0.4498545
3.017201
2.342967
0.8844485
2.330232
-2.617795
2.301666
-0.6006042
5.405983
0.02270047
3.739325
0.4266286
0.1647175
-11.9266
-7.022529
-10.04696
2.472387
0.8973272
0.253558
1.6537
-37.66584
-15.89056
2.654785
-40.25742
24.16236
2.07611
3.271622
-14.21636
-27.80246
0.3141454
4.506715
-51.61649
1.726575
0.386777
-28.07211
-1.24656
9.120045
2.664713
0.9738133
8.570133
2.330183
-27.3301
3.27972
0.8788335
34.96466
-15.96863
-9.779427
2.012444
3.906659
2.132122
9.209221
2.142752
7.983401
2.269024
-2.583237
-0.6490461
-7.116205
-3.737918
1.886761
-9.623447
2.39664
-73.45339
9.794845
2.974713
21.33041
1.337753
29.30399
-0.2822924
-3.507142
2.219585
1.981864
14.19257
-21.60073
-33.62091
1.578806
0.6513722
0.3502221
0.4112659
5.958612
-2.414626
0.04202914
0.4026684
-16.17815
2.134807
15.29505
-14.26524
2.192183
-29.86628
-6.356364
1.804507
-41.93704
38.22281
-1.523746
1.248584
-48.63596
1.828929
-0.4004646
1.898071
-1.263012
-9.276757
-102.1387
-7.111645
0.6723001
1.542833
0.5075528
1.498955
2.201202
3.977426
12.60426
5.531049
1.10735
0.5212315
1.608777
-13.45002
-11.06335
2.138781
2.541372
2.366862
-31.36118
0.04519236
1.561554
0.6465146
-2.682792
-10.85602
2.364849
-0.360962
3.430769
-0.2580969
2.321036
-15.64167
1.498424
2.226434
-88.98287
22.93916
-3.567276
1.86392
5.262353
-2.271371
0.1654492
-0.08028888
-0.2003802
-0.5762543
2.396933
-9.203968
1.792392
-20.31225
1.124738
-18.95892
-0.335997
0.1468589
-1.540162
-0.5143622
-19.51493
-9.456596
-4.744658
-7.096827
0.2727962
1.235108
-1.341883
-2.888112
-0.2242866
-1.444218
3.602541
0.5016165
1.152036
-0.6784143
0.7535315
-1.539341
3.091515
-35.48985
1.676997
-2.16858
1.581091
-47.66365
1.827834
-43.29638
1.338016
1.656788
-0.1640222
-0.3910523
4.624546
-39.70571
-96.95911
0.5300349
1.001551
-8.777419
2.228871
4.76523
3.818013
1.692639
3.164668
1.5745
1.980591
-46.70706
-0.6335932
-21.9784
-0.3373068
0.08161563
-1.728066
0.3904075
1.541569
0.211974
-2.900873
-0.7372865
-2.037437
7.048377
0.4833498
-17.65613
0.7000144
2.283248
-2.243974
-12.98946
2.338523
2.348104
0.1314251
-23.69776
-49.40904
-62.88714
1.530069
-39.922
3.276086
-8.39595
-4.355184
2.754539
17.4974
0.2449537
-73.55418
-86.20705
-4.740583
-3.396145
-3.043298
-1.307048
-8.240279
-8.024748
-2.23794
-9.265888
-0.9440836
-20.04106
-0.9075427
1.464401
-0.6410283
2.264705
-1.790329
0.1212687
-4.407373
1.294021
0.1952163
-23.41422
2.503112
4.550921
3.318669
3.176502
-39.62787
2.473422
0.6779752
1.719179
1.797574
-7.610277
-29.328
2.181479
2.56246
-2.867047
1.405702
14.60103
-69.65691
-7.322195
-1.002751
-0.6631972
23.18075
-4.381702
1.838068
2.318396
2.090876
3.023611
-26.94009
-39.2894
-25.23482
9.032083
6.81046
2.538092
-74.71083
-57.53767
-86.97527
3.439211
0.05657024
2.120169
1.846095
0.4320079
2.522514
1.002701
3.513637
2.183592
2.191008
2.169426
1.050476
-34.30575
1.601661
3.48176
-0.8220509
-29.65989
20.88477
0.2818927
-32.55763
-44.13467
-3.347897
3.771257
-8.262083
-0.6422228
-17.37205
-81.66391
0.4563789
-19.46801
1.311626
-37.20333
-10.91252
-3.077635
0.5394054
-15.58999
2.274507
15.34057
1.134493
0.3111023
4.019358
1.140139
2.439556
-0.5665272
0.1254942
2.333455
0.972145
-56.82432
0.4965284
0.2619729
-7.712428
2.198372
2.205319
-23.94614
-17.96243
-28.68041
2.655562
3.738507
20.14838
2.793145
1.125058
-16.97908
2.249171
-46.19265
-1.796791
0.1414018
1.05759
0.823328
-11.52825
-1.713709
2.318539
-4.573467
0.4900007
1.448007
2.08712
26.86508
1.975778
-7.005541
0.6488789
-27.47933
1.29005
-92.72072
1.319168
2.207615
5.002296
3.309217
2.423321
-67.30997
-89.22204
-66.04605
-0.1126065
-13.4089
-75.87387
3.382294
-4.804671
-0.3809112
0.890288
-18.23624
-45.25996
2.455467
-41.24574
0.0392993
4.866096
0.6786677
-28.83893
9.94776
0.1559383
2.58787
0.806994
2.739104
-1.42848
14.32184
2.287095
-21.13955
0.6002188
0.1145623
0.4303812
0.9964891
-2.248775
-1.349078
2.402689
-13.27559
3.589089
1.183594
-16.7772
0.9148226
-3.953019
-7.648003
-6.04079
2.132112
1.907972
-0.4324322
0.0491606
0.4880235
-84.33907
27.12818
0.1259889
-1.693047
-1.173515
-40.36059
1.311975
3.784669
-4.822019
1.651192
-0.9997352
0.5639321
2.574006
-10.34608
-1.3309
22.36202
38.78503
1.475954
-2.420162
-0.3503556
2.264299
0.9762421
0.2150248
35.43097
-81.59637
2.428366
8.303587
2.258973
-19.0515
1.845765
1.327954
3.795919
-0.009300093
2.051526
-12.09226
0.4217696
3.380319
-5.2848
-12.66313
-17.74373
-4.044465
0.3126471
-92.11213
26.03982
-34.27481
-0.2005914
-1.559799
1.537127
0.7949819
4.370123
33.29323
1.183387
-3.396119
-26.96172
2.486799
0.3360663
-22.98272
0.7552528
-3.134245
1.793632
1.982241
20.40281
-10.04109
-0.03538964
-3.031831
-1.035519
-2.586598
19.51247
3.696024
4.617321
-54.85094
-13.66813
1.011475
0.3850761
0.6216925
-3.164398
-53.16237
6.740273
-8.760172
-0.9623208
2.787552
-19.99385
-20.15459
-2.28261
-9.535752
2.445125
0.487888
1.818663
1.965057
-74.6453
-23.30939
-1.433998
4.927402
0.09070845
1.767447
1.877947
2.856241
0.01341725
-1.26062
-52.23027
-7.046032
-3.493003
-2.750624
-54.50135
3.808513
3.704157
-14.60908
4.129348
7.677127
2.657473
36.29755
3.262439
0.8173152
2.396275
2.359462
-16.84905
-13.08157
-23.67522
16.75426
1.053055
2.126451
0.3004115
0.4598718
0.3789374
0.4579967
0.1976053
0.7232447
-0.1351036
-0.1227604
0.2561763
3.480155
13.09261
8.197809
-18.22566
2.150845
-2.783443
-2.213864
2.035952
-14.18687
15.38147
-55.61164
-22.90472
2.170423
0.4820669
-91.14004
44.69656
-106.3275
3.763077
1.24678
5.845105
-8.454246
11.41189
-29.99037
0.4816466
5.352789
-0.4135437
2.665454
0.7106323
-1.209978
-1.170555
-37.46077
5.500472
3.035266
-1.808893
0.6543308
-36.88627
-14.75182
-4.331677
2.495216
17.38315
0.3176181
2.22159
2.259813
-0.1857722
-52.23529
1.510718
4.196653
35.47146
0.5975785
0.6650799
1.147356
30.51993
10.81729
0.5719815
3.726412
-9.268123
1.903691
0.9637561
-54.62561
0.4843603
-84.55489
-0.1072869
1.680941
46.33108
4.314864
1.038246
1.42328
3.069703
1.974619
2.135222
-18.83806
42.15512
2.183332
0.2728531
47.1884
2.811835
3.716275
2.053309
-28.33759
2.52706
-8.929143
-6.662524
-0.7670073
-3.632713
-56.32022
1.137357
1.116613
0.1990899
0.6267359
22.15728
3.585454
0.2832002
0.6910118
0.3111233
-0.6844198
-0.4266535
-0.3781344
1.348316
0.5772276
1.885818
-8.296571
-49.492
-9.002754
-12.28688
-2.662417
-2.083856
7.848974
-0.02044148
1.564803
4.841093
-80.91947
-5.800872
28.33522
-25.62121
1.113279
-1.114551
1.376891
-0.2983684
-19.43432
2.033872
2.479388
-54.84746
2.444921
-1.079693
2.484509
0.875196
2.215349
-0.7003152
1.347872
1.325554
0.6466954
0.8988505
3.634913
-9.34396
-0.1106073
2.225121
2.392578
-42.35796
-16.09182
2.167528
-1.607857
0.5666277
-10.51954
-15.63722
-1.005441
2.409204
1.728286
2.38845
10.5501
18.86594
0.4197412
3.92749
-0.2044123
-10.12058
-89.29984
-85.12158
1.19525
-2.658994
4.220305
-8.24887
15.36973
2.950774
0.03887019
2.713917
-0.9095193
-7.393386
3.337589
-12.29146
1.069671
2.275323
29.93014
4.188302
-2.984417
4.223764
3.969139
3.640199