/*--------------------------------*- C++ -*----------------------------------*\
| =========                 |                                                 |
| \\      /  F ield         | OpenFOAM: The Open Source CFD Toolbox           |
|  \\    /   O peration     | Version:  2406                                  |
|   \\  /    A nd           | Website:  www.openfoam.com                      |
|    \\/     M anipulation  |                                                 |
\*---------------------------------------------------------------------------*/
FoamFile
{
    version     2.0;
    format      ascii;
    arch        "LSB;label=32;scalar=64";
    class       surfaceScalarField;
    location    "5";
    object      phi;
}
// * * * * * * * * * * * * * * * * * * * * * * * * * * * * * * * * * * * * * //

dimensions      [0 3 -1 0 0 0 0];

oriented        oriented;

internalField   nonuniform List<scalar> 
23794
(
-0.007047213
0.007151873
-0.0001046594
-0.006678599
-0.0003686138
-0.006091581
-0.0005870185
-0.005286197
-0.0008053835
-0.004344798
-0.0009413989
-0.003498492
-0.000846306
-0.00291568
-0.0005828119
-0.00275667
-0.0001590104
-0.00356646
0.0008097901
-0.0051396
0.00157314
-0.006185479
0.00104588
-0.006453062
0.0002675823
-0.006109319
-0.0003437429
-0.005345605
-0.0007637136
-0.004207663
-0.001137942
-0.002994378
-0.001213286
-0.001964233
-0.001030145
-0.0008945978
-0.001069635
1.280017e-06
-0.0008958778
0.0007222746
-0.0007209946
0.0009500375
-0.0002277629
0.0003621995
0.000587838
-0.001179649
0.001541849
-0.002993022
0.001813373
-0.003149573
0.0001565505
-0.0007856203
-0.002363952
0.00154725
-0.00233287
0.003076268
-0.001529018
0.005186611
-0.002110343
0.0084921
-0.003305489
0.01132936
-0.002837256
0.009591067
0.00173829
0.001150357
0.008440709
-0.004359221
0.005509579
-0.0008188122
-0.003540409
0.00353809
-0.004356902
0.004522486
-0.0009843963
0.003499048
0.001023439
9.063334e-07
0.003498141
-0.005214043
0.00521495
-0.009155663
0.00394162
-0.01133408
0.002178421
-0.01250295
0.001168863
-0.01320925
0.0007063056
-0.01367825
0.0004690015
-0.01391673
0.0002384803
-0.01403046
0.0001137249
-0.01406394
3.348323e-05
-0.0140254
-3.854334e-05
-0.01396062
-6.477472e-05
-0.01383526
-0.0001253606
-0.01366565
-0.0001696153
-0.01343645
-0.0002291956
-0.01318091
-0.0002555435
-0.01290544
-0.0002754668
-0.01257537
-0.0003300774
-0.01222328
-0.0003520894
-0.01186088
-0.0003623913
-0.01143551
-0.0004253789
-0.01098615
-0.0004493558
-0.01051057
-0.0004755807
-0.01002697
-0.0004836005
-0.009521771
-0.0005051973
-0.008968203
-0.0005535679
-0.008420213
-0.0005479903
-0.007831404
-0.000588809
-0.00722544
-0.0006059641
-0.00661158
-0.0006138602
-0.005988072
-0.0006235082
-0.005334793
-0.0006532788
-0.004677836
-0.0006569565
-0.004011178
-0.0006666582
-0.003329007
-0.0006821708
-0.002641476
-0.0006875316
-0.001974933
-0.0006665427
-0.001266266
-0.0007086669
-0.0005830332
-0.0006832329
6.208481e-05
-0.000645118
0.0007002935
-0.0006382087
0.001461948
-0.0007616548
0.002209408
-0.0007474598
0.002941528
-0.0007321204
0.003656382
-0.0007148534
0.004349624
-0.0006932416
0.005039177
-0.0006895535
0.005705261
-0.0006660834
0.006381364
-0.0006761034
0.007036941
-0.0006555767
0.007658068
-0.0006211271
0.008283497
-0.0006254292
0.008896729
-0.0006132322
0.00948835
-0.0005916213
0.01007828
-0.000589934
0.01065525
-0.0005769614
0.01117787
-0.0005226258
0.01169829
-0.0005204205
0.01220526
-0.0005069653
0.01267148
-0.0004662216
0.0131411
-0.0004696181
0.01355936
-0.0004182584
0.01395191
-0.0003925515
0.01430716
-0.000355249
0.01462147
-0.0003143149
0.01493471
-0.0003132418
0.01521334
-0.0002786236
0.01545572
-0.0002423818
0.01565909
-0.0002033702
0.01582427
-0.0001651817
0.01596554
-0.0001412714
0.01604769
-8.214803e-05
0.01612051
-7.28185e-05
0.01613752
-1.701071e-05
0.01600526
0.0001322543
0.0157556
0.0002496657
0.01540192
0.0003536786
0.01490288
0.0004990423
0.0141039
0.0007989749
0.01266255
0.001441353
0.009768011
0.002894538
0.004920404
0.004847607
0.0005400247
0.00438038
-0.001961843
0.002501868
-0.00534396
0.003382117
-0.007748103
0.002404144
-0.006356145
-0.001391959
-0.003474883
-0.002881261
-0.001007676
-0.002467207
0.002685954
-0.00369363
0.006519024
-0.003833069
0.0009813185
0.005537705
-0.008915395
0.009896713
-0.0126808
0.003765403
-0.0107062
-0.001974593
-0.008302199
-0.002404006
-0.00650579
-0.001796409
-0.005253915
-0.001251875
-0.003960356
-0.001293559
-0.001993606
-0.00196675
0.0009293836
-0.00292299
0.002867982
-0.001938598
0.00221748
0.0006505024
0.001062508
0.001154971
5.318941e-05
0.001009319
-0.0005576469
0.0006108363
-0.000640899
8.325212e-05
-8.27324e-06
-0.0006326257
0.00122414
-0.001232413
0.001373391
-0.0001492512
-0.0001997002
0.001573092
-0.0004846476
0.0002849474
0.0008384814
-0.001323129
0.001088892
-0.0002504107
-0.0005573087
0.001646201
-0.00336411
0.002806802
-0.005618905
0.002254795
-0.006789251
0.001170346
0.0003626216
-0.009525408
0.009668039
-0.0002472904
-0.009170924
-0.0007230973
-0.008534942
-0.001223001
-0.007610031
-0.001730294
-0.006523722
-0.002027708
-0.005797124
-0.001572904
-0.006081351
-0.0002985847
-0.007242046
0.001001684
-0.00839033
0.001958074
-0.008935336
0.002118146
-0.008723966
0.0008345093
-0.008357814
-9.856999e-05
-0.007867842
-0.0008337149
-0.006976733
-0.001654822
-0.005630003
-0.002484672
-0.00414367
-0.002699619
-0.002678755
-0.002495061
-0.001065731
-0.002682658
0.0003747366
-0.002336345
0.001402277
-0.001748535
0.001769311
-0.0005947961
0.001209054
0.001148095
-0.0008503005
0.003601203
-0.00386822
0.004831293
-0.004060181
0.0003485115
-0.001108732
-0.005315402
0.001098848
-0.00454045
0.002503909
-0.002934079
0.004630108
-0.004236542
0.008319259
-0.00699464
0.01154187
-0.006059868
0.01199563
0.001284535
0.005138414
0.01529792
-0.002013741
0.01266173
-0.00223393
-0.00332022
-0.0009133857
-0.005677446
-0.0009498238
-0.0009479582
-0.004530646
0.004604261
-0.01129487
0.01026236
-0.01701629
0.01093637
-0.01950438
0.006429717
-0.02017555
0.002849591
-0.02036746
0.001360771
-0.02040784
0.0007466868
-0.02037768
0.0004388359
-0.02022907
8.987338e-05
-0.02005598
-5.936566e-05
-0.01987569
-0.0001468067
-0.01965463
-0.0002596028
-0.0194145
-0.0003049089
-0.01911157
-0.0004282855
-0.01876557
-0.0005156193
-0.01835571
-0.0006390566
-0.01791855
-0.0006927042
-0.01746699
-0.0007270202
-0.01695671
-0.0008403618
-0.01642022
-0.000888575
-0.01587714
-0.0009054783
-0.01526194
-0.001040578
-0.01462384
-0.001087447
-0.01395555
-0.001143878
-0.01327765
-0.001161494
-0.01258013
-0.001202723
-0.01182518
-0.001308515
-0.01107869
-0.001294477
-0.01028936
-0.001378146
-0.009477941
-0.00141738
-0.008660602
-0.001431199
-0.007836035
-0.001448075
-0.006975128
-0.001514186
-0.006109171
-0.001522914
-0.005234221
-0.001541608
-0.004342324
-0.001574068
-0.003447052
-0.001582804
-0.002573416
-0.001540179
-0.001656783
-0.001625299
-0.0007689324
-0.001571084
7.644568e-05
-0.001490496
0.0009138173
-0.00147558
0.001890023
-0.001737861
0.00285563
-0.001713067
0.003804703
-0.001681193
0.004732433
-0.001642583
0.005638242
-0.001599051
0.006541833
-0.001593144
0.007418538
-0.001542789
0.008307304
-0.001564869
0.009173092
-0.001521365
0.009996701
-0.001444736
0.01082793
-0.001456663
0.01164933
-0.001434624
0.01244332
-0.001385612
0.01323627
-0.001382887
0.01401854
-0.00135923
0.01473688
-0.001240964
0.01545692
-0.001240459
0.01616191
-0.001211964
0.01682144
-0.00112575
0.01748682
-0.001134995
0.01809172
-0.001023158
0.0186752
-0.0009760283
0.01921666
-0.0008967113
0.01971305
-0.0008107108
0.020215
-0.0008151906
0.02067996
-0.0007435825
0.02110477
-0.0006671927
0.02148953
-0.0005881232
0.02183458
-0.0005102366
0.022156
-0.0004626923
0.0224188
-0.0003449467
0.02268029
-0.0003343075
0.02291377
-0.0002504893
0.02305912
-1.309498e-05
0.02316882
0.0001399588
0.02326016
0.0002623408
0.0233258
0.000433403
0.02330348
0.0008212947
0.0231129
0.001631934
0.02212814
0.003879303
0.01869095
0.008284799
0.01144929
0.01162204
0.001513572
0.01243758
-0.00397836
0.008874048
-0.002543445
0.0009692281
0.000573319
-0.004508722
0.002599052
-0.004906995
0.003561604
-0.003429759
0.005599616
-0.005731642
0.007185893
-0.005419346
-0.001968548
0.01469215
-0.01311441
0.02104257
-0.01482256
0.005473556
-0.01229267
-0.004504487
-0.009656525
-0.005040148
-0.007632592
-0.003820342
-0.006237665
-0.002646802
-0.004827885
-0.002703339
-0.002724106
-0.00407053
0.0008816327
-0.006528728
0.004276266
-0.005333232
0.003788174
0.001138594
0.001382774
0.003560372
-9.600219e-05
0.002488095
-0.0006478711
0.001162705
-0.0006500375
8.541853e-05
0.0001232774
-0.001405941
0.001420864
-0.00253
0.001939899
-0.0006682862
0.0008306576
0.002682333
0.0005746376
0.0005409674
0.0008052145
-0.001553706
-0.001420863
0.001975667
-0.005387807
0.005613145
-0.008454759
0.005873754
-0.009591707
0.003391743
-0.009727246
0.001305885
0.0003034144
-0.01224991
0.01207084
-6.822377e-05
-0.01214034
-0.0008326686
-0.01171465
-0.001648686
-0.01098033
-0.002464617
-0.01014268
-0.002865357
-0.00973125
-0.001984337
-0.01007268
4.284964e-05
-0.01063259
0.001561586
-0.0106545
0.001979985
-0.01023841
0.001702064
-0.009800901
0.0003969962
-0.009583374
-0.0003160968
-0.008930504
-0.001486585
-0.007694223
-0.002891104
-0.005950203
-0.004228692
-0.004096603
-0.004553219
-0.002327061
-0.004264602
-0.0004325579
-0.004577162
0.001272752
-0.004041655
0.002378482
-0.002854265
0.002696665
-0.0009129793
0.001972489
0.001872271
7.462318e-05
0.005499069
-0.003050081
0.007955998
-0.003823387
0.001121817
-0.001524992
-0.007613798
-0.0002121021
-0.005853339
0.0007975284
-0.003943709
0.002890233
-0.006329247
0.007095858
-0.01120027
0.01076886
-0.00973287
0.01172515
0.0003282465
0.006841337
0.02018173
-0.0008307778
0.02033385
-0.007213505
0.003062507
-0.01175525
-0.001135697
-0.01457025
0.001867042
-0.01820004
0.008234043
-0.02215004
0.01421237
-0.0238455
0.01263183
-0.02381644
0.006400652
-0.02378485
0.002818004
-0.02390366
0.001479577
-0.02399322
0.0008362488
-0.02404457
0.0004901912
-0.02394546
-9.240683e-06
-0.0237945
-0.0002103265
-0.02360734
-0.0003339666
-0.02335593
-0.0005110082
-0.02308169
-0.0005791531
-0.02273024
-0.0007797332
-0.02232833
-0.0009175253
-0.02184904
-0.001118347
-0.02133644
-0.001205309
-0.02080779
-0.001255671
-0.0202061
-0.001442047
-0.01957304
-0.001521639
-0.01893351
-0.001545009
-0.01820485
-0.001769238
-0.01744894
-0.001843352
-0.01665648
-0.001936342
-0.01585221
-0.001965761
-0.01502441
-0.002030522
-0.0141254
-0.002207533
-0.01323767
-0.002182206
-0.01229612
-0.002319689
-0.01132827
-0.002385231
-0.0103525
-0.002406975
-0.009367543
-0.002433031
-0.008338507
-0.002543222
-0.007303034
-0.002558387
-0.006255707
-0.002588935
-0.005188356
-0.002641419
-0.004115674
-0.002655486
-0.003066925
-0.002588928
-0.001968907
-0.002723317
-0.0009040097
-0.002635982
0.0001137983
-0.002508304
0.001120857
-0.002482639
0.002281077
-0.002898081
0.003431508
-0.002863498
0.004563411
-0.002813096
0.005669481
-0.002748653
0.006750197
-0.002679768
0.007828381
-0.002671327
0.008873803
-0.002588211
0.009933787
-0.002624853
0.01096515
-0.002552731
0.0119459
-0.002425484
0.0129358
-0.00244656
0.01391272
-0.002411547
0.01485642
-0.002329311
0.01579904
-0.002325508
0.01672797
-0.002288159
0.0175793
-0.002092296
0.01843327
-0.002094431
0.0192683
-0.002046993
0.02004724
-0.001904682
0.02083518
-0.001922936
0.02154794
-0.001735926
0.02223597
-0.001664052
0.02287235
-0.001533096
0.02345276
-0.001391117
0.02404159
-0.001404018
0.0245833
-0.001285299
0.02507817
-0.001162056
0.02552356
-0.001033519
0.02592124
-0.0009079197
0.02629146
-0.0008329087
0.02658907
-0.0006425511
0.02688909
-0.0006343328
0.02713783
-0.0004992277
0.02724516
-0.0001204289
0.02729114
9.397798e-05
0.02730927
0.0002442106
0.02730148
0.0004412008
0.02723889
0.0008838817
0.02720264
0.001668181
0.02744837
0.003633579
0.027412
0.008321167
0.02403506
0.01499898
0.01524814
0.0212245
0.007998671
0.01612352
0.007743401
0.001224498
0.01112217
-0.007887487
0.01315856
-0.00694339
0.01278153
-0.003052726
0.01073503
-0.003685143
0.006701813
-0.001386131
-0.004430312
0.02582427
-0.01357573
0.03018799
-0.01439807
0.006295897
-0.0119633
-0.006939261
-0.009333737
-0.007669707
-0.007383723
-0.005770356
-0.006118617
-0.003911907
-0.004884565
-0.003937392
-0.003016961
-0.005938134
0.000565796
-0.01011148
0.004605623
-0.009373058
0.004238863
0.001505354
0.001515487
0.006283748
4.543329e-05
0.003958148
-0.0005705747
0.001778713
-0.000713745
0.0002285889
4.913635e-05
-0.002168822
0.001360853
-0.003841716
0.001961766
-0.001269199
0.001238795
0.003405304
0.0005633579
0.001216404
-0.001607857
0.0006175089
-0.006001911
0.00636972
-0.009684748
0.009295982
-0.01109488
0.007283884
-0.01135528
0.003652144
-0.01169473
0.001645339
0.0006795258
-0.01552488
0.01503213
0.0004245255
-0.01567666
-0.0006808865
-0.01541279
-0.001912552
-0.01478173
-0.003095683
-0.0139868
-0.003660285
-0.01340609
-0.002565048
-0.01310022
-0.0002630122
-0.01269484
0.001156198
-0.01206858
0.00135373
-0.01173477
0.001368253
-0.0115166
0.0001788222
-0.01123247
-0.0006002246
-0.01032575
-0.002393304
-0.008686803
-0.004530051
-0.006388873
-0.006526622
-0.004003444
-0.006938648
-0.001862145
-0.006405901
0.000310499
-0.006749806
0.002287056
-0.006018212
0.003484151
-0.004051361
0.003743985
-0.001172813
0.002742474
0.002873782
0.001018142
0.007223401
-0.001634136
0.01060828
-0.003090713
0.002578394
-0.002431347
-0.008273163
-0.002483244
-0.005801443
-0.002202963
-0.00422399
0.0003610245
-0.008893234
0.004705297
-0.01554454
0.008762454
-0.01379003
0.009448398
-0.000357697
0.005318923
0.02431121
-0.00430352
0.02995629
-0.01608354
0.01484253
-0.02374497
0.006525729
-0.02685225
0.004974323
-0.02864973
0.01003152
-0.02903692
0.01459955
-0.02840632
0.01200123
-0.02826094
0.006255279
-0.0286185
0.003175558
-0.02890786
0.00176894
-0.02906956
0.0009979466
-0.02913417
0.0005548002
-0.0289936
-0.0001498137
-0.02878464
-0.0004192807
-0.02853421
-0.0005843988
-0.02820885
-0.0008363648
-0.02785845
-0.0009295574
-0.02741892
-0.001219258
-0.02692061
-0.001415837
-0.02633063
-0.001708328
-0.02570159
-0.001834349
-0.02505471
-0.001902548
-0.02432246
-0.002174302
-0.02355278
-0.002291318
-0.02277597
-0.002321821
-0.02189578
-0.002649423
-0.02098122
-0.002757917
-0.02002388
-0.002893682
-0.0190537
-0.002935939
-0.01805676
-0.003027466
-0.01697321
-0.003291076
-0.01590592
-0.003249496
-0.01477281
-0.003452798
-0.01360983
-0.003548219
-0.01243638
-0.00358042
-0.01125242
-0.003616987
-0.01001576
-0.00377989
-0.00877131
-0.003802833
-0.0075122
-0.003848045
-0.006231036
-0.003922583
-0.004941009
-0.003945512
-0.003679384
-0.003850553
-0.002357345
-0.004045356
-0.001073257
-0.00392007
0.0001606196
-0.00374218
0.00137883
-0.003700849
0.002762734
-0.004281985
0.004135189
-0.004235953
0.005490428
-0.004168334
0.006814107
-0.004072333
0.008107217
-0.003972878
0.009397183
-0.003961293
0.01064784
-0.00383887
0.01191878
-0.003895792
0.01315327
-0.003787217
0.01433064
-0.003602855
0.01552048
-0.003636407
0.01669312
-0.003584183
0.01782956
-0.003465753
0.01896673
-0.003462671
0.02008449
-0.003405924
0.02111306
-0.003120865
0.02214562
-0.003126995
0.02315437
-0.003055735
0.02409821
-0.002848529
0.0250536
-0.002878325
0.02591977
-0.002602094
0.02675634
-0.002500619
0.0275322
-0.002308961
0.02824443
-0.002103342
0.02896638
-0.002125973
0.02963211
-0.001951029
0.03024481
-0.001774749
0.03079719
-0.001585904
0.03129564
-0.001406365
0.031762
-0.00129927
0.03214444
-0.001024995
0.03252948
-0.001019375
0.03285699
-0.0008267345
0.03301899
-0.0002824288
0.0330992
1.377238e-05
0.03313264
0.0002107621
0.0331176
0.0004562468
0.03297548
0.001026004
0.03270918
0.001934474
0.03247071
0.003872054
0.03293347
0.007858409
0.03324665
0.01468579
0.03067478
0.02379638
0.02706846
0.01972983
0.02561664
0.002676316
0.02597302
-0.008243867
0.02599944
-0.006969808
0.02417598
-0.001229269
0.01854242
0.001948423
0.008384098
0.008772189
-0.004474981
0.03868335
-0.01216614
0.03787915
-0.01299004
0.007119798
-0.009745088
-0.01018422
-0.006783047
-0.01063175
-0.005101497
-0.007451906
-0.004353217
-0.004660187
-0.003613434
-0.004677175
-0.002360267
-0.007191301
0.0004216519
-0.0128934
0.004266684
-0.01321809
0.003981798
0.00179024
0.001567783
0.008697762
0.0002414906
0.005284441
-0.0006273555
0.002647559
-0.0009541445
0.0005553779
-0.0002920403
-0.002830926
0.0009950089
-0.005128766
0.001547962
-0.001822152
0.0009767342
0.003976532
-0.00109143
0.003284569
-0.00570441
0.005230488
-0.01035359
0.0110189
-0.01247783
0.01142023
-0.01288106
0.007687112
-0.0134302
0.004201288
-0.01428798
0.002503113
0.001423676
-0.01899675
0.01829622
0.001125057
-0.01919289
-0.0004847505
-0.01884002
-0.002265415
-0.018036
-0.003899707
-0.01699474
-0.004701546
-0.01606422
-0.003495562
-0.01526662
-0.001060619
-0.01447917
0.0003687533
-0.01388736
0.0007619225
-0.01392555
0.001406438
-0.0137694
2.267448e-05
-0.0134283
-0.0009413219
-0.01230251
-0.003519103
-0.01026549
-0.006567067
-0.007375997
-0.009416113
-0.00434713
-0.009967515
-0.001690291
-0.00906274
0.0009764971
-0.009416593
0.003313436
-0.008355151
0.004680885
-0.00541881
0.004929892
-0.00142182
0.003604428
0.004199246
0.001643711
0.009184119
-0.0004956643
0.01274765
-0.00254033
0.00462306
-0.004161734
-0.00665176
-0.005989192
-0.003973985
-0.00649883
-0.003714352
-0.004518469
-0.0108736
-0.0001952255
-0.01986778
0.003821861
-0.01780711
0.004234507
-0.0007703428
0.0008184246
0.02772729
-0.01136007
0.04213479
-0.02541315
0.02889561
-0.03207417
0.01318675
-0.03419531
0.007095455
-0.03484043
0.01067665
-0.0340724
0.01383152
-0.03339891
0.01132775
-0.03363023
0.006486599
-0.03406624
0.003611569
-0.03440273
0.002105429
-0.03459754
0.001192758
-0.0347123
0.0006695552
-0.03457151
-0.0002906047
-0.0343489
-0.0006418911
-0.0340766
-0.0008566936
-0.03369733
-0.001215639
-0.03330492
-0.001321964
-0.03278893
-0.00173525
-0.03220852
-0.001996243
-0.03151064
-0.00240621
-0.0307667
-0.002578295
-0.03000469
-0.002664553
-0.02913251
-0.003046478
-0.02821586
-0.003207972
-0.02729416
-0.003243517
-0.02624494
-0.003698648
-0.02515148
-0.003851371
-0.02400742
-0.004037746
-0.02285015
-0.004093214
-0.02166053
-0.004217085
-0.02036068
-0.004590927
-0.01908743
-0.004522747
-0.01772905
-0.00481117
-0.01633827
-0.004939004
-0.01493281
-0.004985879
-0.01351658
-0.005033218
-0.01203355
-0.00526292
-0.01054062
-0.00529576
-0.009026926
-0.00536174
-0.007489993
-0.005459516
-0.005939812
-0.005495693
-0.00442545
-0.005364915
-0.002832453
-0.005638353
-0.001281367
-0.005471156
0.0002175355
-0.005241083
0.001692887
-0.005176201
0.003346095
-0.005935192
0.00498405
-0.005873909
0.006607756
-0.00579204
0.008187457
-0.005652034
0.009728521
-0.005513941
0.01126814
-0.005500909
0.01276124
-0.005331976
0.01428489
-0.005419439
0.01575882
-0.005261149
0.01717167
-0.005015703
0.01860193
-0.005066669
0.02000292
-0.004985166
0.02136609
-0.004828922
0.02273513
-0.00483172
0.02407074
-0.004741527
0.02530204
-0.004352169
0.02654052
-0.004365475
0.02774644
-0.004261653
0.02887096
-0.003973052
0.03001591
-0.00402327
0.0310474
-0.003633584
0.03204315
-0.003496368
0.03296481
-0.003230622
0.0338066
-0.002945137
0.03466365
-0.002983023
0.03544536
-0.002732733
0.03616877
-0.002498159
0.03681237
-0.002229504
0.03739121
-0.001985213
0.03793636
-0.001844412
0.03836521
-0.001453848
0.03880641
-0.00146058
0.03917577
-0.001196089
0.03933552
-0.0004421841
0.03940075
-5.145418e-05
0.03940917
0.0002023431
0.03935516
0.0005102586
0.03917487
0.001206289
0.03889465
0.0022147
0.03854017
0.004226528
0.03850403
0.007894556
0.0396522
0.01353762
0.04151653
0.02193205
0.04185854
0.01938782
0.04028958
0.004245278
0.03826899
-0.006223275
0.03650397
-0.005204793
0.03381693
0.001457779
0.02673742
0.009027931
0.01245506
0.02305455
-0.001953599
0.05309201
-0.008934411
0.04485997
-0.01040184
0.008587231
-0.006193069
-0.01439299
-0.002254623
-0.01457019
-0.0002768472
-0.009429682
-9.11533e-05
-0.004845881
-0.00015174
-0.004616588
-9.3151e-06
-0.007333725
0.0008326168
-0.01373534
0.003412851
-0.01579832
0.003244817
0.001958274
0.001604753
0.01033783
0.0004072465
0.006481948
-0.0008622339
0.00391704
-0.001478079
0.001171223
-0.001002466
-0.003306539
0.0002108275
-0.006342059
0.0008550142
-0.002466339
9.587958e-05
0.004735667
-0.004086257
0.007466706
-0.01009588
0.01124011
-0.01364077
0.01456378
-0.01449609
0.01227555
-0.01497168
0.008162697
-0.01606366
0.005293271
-0.0172607
0.003700156
0.002459191
-0.02248336
0.02173529
0.001873124
-0.02262225
-0.0003458533
-0.02211994
-0.002767727
-0.02112606
-0.004893587
-0.01981821
-0.0060094
-0.01860968
-0.004704092
-0.01764376
-0.002026538
-0.01696633
-0.0003086803
-0.01654525
0.0003408435
-0.01683949
0.001700685
-0.01657782
-0.0002389989
-0.01617541
-0.001343736
-0.01486342
-0.004831093
-0.01241488
-0.009015599
-0.008876979
-0.01295402
-0.005087026
-0.01375747
-0.001747727
-0.01240204
0.001587088
-0.01275141
0.004435526
-0.01120359
0.006041132
-0.007024415
0.00638277
-0.001763459
0.004702628
0.005879388
0.001998349
0.0118884
-0.0001575605
0.01490356
-0.003109032
0.007574532
-0.007239502
-0.00252129
-0.01109039
-0.0001230933
-0.01264862
-0.002156127
-0.01157962
-0.01194259
-0.007854066
-0.02359334
-0.004378606
-0.02128257
-0.003955617
-0.001193331
-0.009570388
0.03334206
-0.02221234
0.05477674
-0.03407745
0.04076072
-0.03793911
0.01704841
-0.03979058
0.008946926
-0.04070222
0.01158828
-0.0403856
0.0135149
-0.04025551
0.01119766
-0.04067641
0.006907498
-0.04114467
0.004079826
-0.04153607
0.00249683
-0.0417211
0.001377793
-0.04183054
0.0007789869
-0.04160991
-0.0005112296
-0.04132622
-0.0009255835
-0.04098034
-0.001202568
-0.04049975
-0.00169623
-0.04002561
-0.001796111
-0.03939196
-0.002368901
-0.03868971
-0.002698493
-0.03784205
-0.003253864
-0.03693925
-0.003481101
-0.03602272
-0.003581074
-0.03496753
-0.004101668
-0.03386227
-0.004313236
-0.03275827
-0.004347513
-0.03149671
-0.004960214
-0.0301777
-0.005170378
-0.02880408
-0.005411366
-0.02741505
-0.005482243
-0.02599126
-0.005640882
-0.02442478
-0.006157402
-0.02290575
-0.006041782
-0.02127297
-0.006443944
-0.0196066
-0.006605372
-0.01792292
-0.006669562
-0.01623036
-0.006725775
-0.01445679
-0.007036495
-0.01267402
-0.007078531
-0.01085667
-0.007179086
-0.009014843
-0.007301344
-0.007145663
-0.007364872
-0.005333575
-0.007177004
-0.00341753
-0.007554398
-0.001538054
-0.007350631
0.0002844184
-0.007063556
0.002072654
-0.006964437
0.004053343
-0.007915881
0.00601422
-0.007834786
0.007949482
-0.007727302
0.009824461
-0.007527013
0.01165768
-0.007347164
0.01349655
-0.007339773
0.01528325
-0.007118679
0.01711847
-0.007254659
0.01888007
-0.00702275
0.02058199
-0.006717627
0.02231075
-0.006795427
0.02398674
-0.006661155
0.02562301
-0.006465192
0.0272834
-0.006492107
0.02888335
-0.006341483
0.03035934
-0.005828159
0.03185178
-0.005857913
0.03330234
-0.005712208
0.03464919
-0.005319902
0.03603073
-0.005404813
0.03727259
-0.004875442
0.0384719
-0.004695681
0.03958023
-0.004338955
0.04059764
-0.003962547
0.04163926
-0.004024642
0.04257935
-0.003672821
0.04346442
-0.003383229
0.04424352
-0.003008607
0.04495394
-0.002695627
0.04562531
-0.002515783
0.0461586
-0.001987138
0.04670742
-0.002009397
0.04715675
-0.00164542
0.04739055
-0.0006759887
0.04749857
-0.0001594777
0.04754203
0.0001588865
0.04754193
0.000510357
0.04735059
0.001397633
0.04704736
0.002517933
0.04667419
0.004599693
0.04635531
0.008213437
0.04681106
0.01308187
0.04919245
0.01955065
0.05083767
0.0177426
0.04926741
0.005815536
0.04619433
-0.003150197
0.04355542
-0.002565882
0.04082239
0.004190807
0.03467282
0.0151775
0.01949863
0.03822873
0.004662358
0.06792829
-0.002292911
0.05181524
-0.004019026
0.01031335
-6.213773e-05
-0.01834988
0.003804083
-0.01843642
0.006990601
-0.0126162
0.007425453
-0.005280733
0.005941968
-0.003133103
0.00412486
-0.005516617
0.002472277
-0.01208275
0.002669511
-0.01599556
0.002538438
0.002089347
0.001794626
0.01108164
0.0003620104
0.007914563
-0.001362818
0.005641868
-0.002375222
0.002183628
-0.002190855
-0.003490906
-0.0007813574
-0.007751557
-0.0001440249
-0.003103672
-0.002172962
0.006764604
-0.008158169
0.01345191
-0.01406459
0.01714653
-0.01616589
0.01666509
-0.01670338
0.01281304
-0.0177319
0.00919121
-0.01916417
0.006725548
-0.02055745
0.005093428
0.003637036
-0.02611208
0.02547223
0.002512978
-0.02612146
-0.0003364723
-0.02551266
-0.003376527
-0.02448463
-0.005921618
-0.02316156
-0.007332467
-0.02194709
-0.005918566
-0.02099968
-0.002973948
-0.02052908
-0.0007792835
-0.02005616
-0.0001320698
-0.02054343
0.00218795
-0.02006215
-0.0007202785
-0.019575
-0.001830886
-0.01802566
-0.006380428
-0.01512963
-0.01191163
-0.01084707
-0.01723658
-0.006101959
-0.01850258
-0.001807808
-0.01669619
0.002336614
-0.01689583
0.005758884
-0.01462586
0.007658074
-0.008923605
0.008272942
-0.002378327
0.006257711
0.00789462
0.002388489
0.01575762
-0.000952442
0.01824449
-0.00557162
0.01219371
-0.0122099
0.004116988
-0.01805153
0.005718536
-0.02092757
0.0007199186
-0.0216533
-0.01121686
-0.01989785
-0.02534878
-0.01755783
-0.02362259
-0.01809384
-0.0006573281
-0.02571389
0.04096211
-0.03650858
0.06557143
-0.04256847
0.04682061
-0.04436719
0.01884713
-0.04695777
0.0115375
-0.04831105
0.01294156
-0.04835258
0.01355643
-0.04838079
0.01122587
-0.04877278
0.007299481
-0.04923632
0.004543375
-0.04970852
0.002969027
-0.04989937
0.001568639
-0.0500807
0.0009603205
-0.0498379
-0.0007540295
-0.04951078
-0.001252703
-0.04910925
-0.001604094
-0.04851089
-0.002294591
-0.04797906
-0.002327944
-0.04720553
-0.00314243
-0.04638055
-0.003523471
-0.04536504
-0.004269376
-0.04427685
-0.004569296
-0.0431901
-0.004667822
-0.04192956
-0.005362208
-0.04060356
-0.005639235
-0.03927886
-0.005672215
-0.037776
-0.006463075
-0.03619652
-0.006749852
-0.03455179
-0.0070561
-0.03286861
-0.007165425
-0.0311879
-0.007321593
-0.0292903
-0.008054998
-0.02748363
-0.007848455
-0.02551391
-0.00841366
-0.02352115
-0.008598137
-0.02151012
-0.008680587
-0.01945475
-0.008781151
-0.01734984
-0.009141397
-0.01522989
-0.009198489
-0.0130566
-0.009352375
-0.01087442
-0.009483525
-0.008591297
-0.009647991
-0.006443383
-0.009324918
-0.004138993
-0.009858788
-0.001855131
-0.009634493
0.0003639354
-0.009282622
0.002532235
-0.009132737
0.004911147
-0.01029479
0.007264225
-0.01018786
0.009533491
-0.009996568
0.01175948
-0.009753002
0.01395856
-0.009546248
0.01615704
-0.009538247
0.01829961
-0.009261255
0.02052964
-0.009484687
0.02264205
-0.009135154
0.02468317
-0.008758754
0.0267608
-0.008873053
0.02878618
-0.008686536
0.0307535
-0.008432509
0.03273789
-0.008476505
0.03466065
-0.00826424
0.03642486
-0.007592368
0.03821268
-0.007645735
0.03993145
-0.007430975
0.04156
-0.00694845
0.04321875
-0.00706357
0.04469643
-0.006353115
0.04614599
-0.006145245
0.04745519
-0.005648158
0.0486729
-0.005180254
0.04992622
-0.005277962
0.05103027
-0.004776867
0.05210082
-0.004453782
0.05300818
-0.003915964
0.05385759
-0.003545042
0.05466493
-0.003323117
0.05527318
-0.002595388
0.05592536
-0.002661576
0.05647757
-0.002197629
0.05673365
-0.0009320696
0.056842
-0.0002678282
0.05686852
0.0001323604
0.05682117
0.0005577053
0.05659041
0.001628398
0.0562764
0.002831946
0.05594475
0.004931339
0.05576327
0.008394923
0.05600598
0.01283916
0.05774055
0.01781608
0.05899687
0.01648628
0.05727362
0.00753879
0.05384954
0.0002738801
0.05077163
0.0005120272
0.04773589
0.007226549
0.0431598
0.01975359
0.0302883
0.05110023
0.01647915
0.08173743
0.008250854
0.06004354
0.006498524
0.01206568
0.01036648
-0.02221784
0.01313996
-0.0212099
0.01572599
-0.01520223
0.01640104
-0.005955782
0.01469227
-0.00142433
0.01118289
-0.002007236
0.006276067
-0.007175929
0.003324388
-0.01304388
0.002578248
0.002835487
0.002129481
0.01153041
0.0001291422
0.009914902
-0.002238721
0.008009731
-0.003744285
0.003689191
-0.004086112
-0.003149078
-0.002840574
-0.008997096
-0.002556222
-0.003388024
-0.006260618
0.010469
-0.01302255
0.02021384
-0.01754918
0.02167316
-0.01863647
0.01775238
-0.01961786
0.01379443
-0.02118887
0.01076222
-0.02282112
0.008357803
-0.02431448
0.006586783
0.004794785
-0.03015378
0.02986989
0.00279687
-0.02990187
-0.000588383
-0.02895191
-0.004326491
-0.02782074
-0.007052786
-0.02667989
-0.008473318
-0.02576318
-0.006835277
-0.02498548
-0.003751651
-0.02478155
-0.000983205
-0.02394296
-0.000970668
-0.02455576
0.002800751
-0.02350724
-0.001768799
-0.02289371
-0.002444408
-0.02138102
-0.007893123
-0.01816449
-0.01512815
-0.01317983
-0.02222124
-0.007380447
-0.02430197
-0.001824337
-0.0222523
0.003237507
-0.02195767
0.007228469
-0.01861682
0.009554512
-0.01124965
0.01060496
-0.003428774
0.008430451
0.01006913
0.003706864
0.02048121
-0.001575014
0.02352637
-0.00947932
0.02009802
-0.0189815
0.01361916
-0.02684974
0.01358678
-0.03127945
0.005149626
-0.03464857
-0.007847736
-0.03622765
-0.02376971
-0.03855527
-0.02129497
-0.04255382
0.003341226
-0.04923069
0.04763898
-0.05274815
0.06908889
-0.05184799
0.04592045
-0.05315012
0.02014927
-0.05641087
0.01479825
-0.05787535
0.01440605
-0.05812719
0.01380827
-0.0583068
0.01140548
-0.05876159
0.007754272
-0.05920603
0.004987809
-0.05981334
0.003576341
-0.05991297
0.001668272
-0.06011674
0.001164085
-0.05979621
-0.001074559
-0.05939108
-0.001657829
-0.05896478
-0.002030396
-0.05817591
-0.003083461
-0.05757502
-0.002928833
-0.05663294
-0.004084513
-0.05566884
-0.004487565
-0.05443084
-0.005507376
-0.05309435
-0.005905786
-0.05181311
-0.005949068
-0.05032991
-0.006845407
-0.04867996
-0.007289187
-0.0470965
-0.007255669
-0.04531905
-0.008240528
-0.04344249
-0.008626412
-0.04143706
-0.009061526
-0.039396
-0.00920649
-0.03747227
-0.009245318
-0.0351111
-0.01041617
-0.03299357
-0.009965986
-0.03055721
-0.01085001
-0.02822372
-0.01093163
-0.02582057
-0.01108374
-0.0233186
-0.01128313
-0.02083455
-0.01162544
-0.01827439
-0.01175865
-0.01566049
-0.01196628
-0.013114
-0.01203001
-0.01033834
-0.01242365
-0.00782601
-0.01183725
-0.005015827
-0.01266897
-0.002256946
-0.01239337
0.0004541014
-0.01199367
0.003104564
-0.0117832
0.005989744
-0.01317997
0.008704593
-0.01290271
0.01135447
-0.01264645
0.01404323
-0.01244176
0.01672653
-0.01222955
0.0193761