/*--------------------------------*- C++ -*----------------------------------*\
| =========                 |                                                 |
| \\      /  F ield         | OpenFOAM: The Open Source CFD Toolbox           |
|  \\    /   O peration     | Version:  2406                                  |
|   \\  /    A nd           | Website:  www.openfoam.com                      |
|    \\/     M anipulation  |                                                 |
\*---------------------------------------------------------------------------*/
FoamFile
{
    version     2.0;
    format      ascii;
    arch        "LSB;label=32;scalar=64";
    class       volVectorField;
    location    "5";
    object      U;
}
// * * * * * * * * * * * * * * * * * * * * * * * * * * * * * * * * * * * * * //

dimensions      [0 1 -1 0 0 0 0];

internalField   nonuniform List<vector> 
15536
(
(0.2837751 -7.367155 -1.105195e-21)
(0.5358543 -7.079433 -1.057111e-18)
(0.7456094 -6.566575 -2.00115e-18)
(0.8766192 -5.788966 -1.836075e-18)
(0.9186037 -4.839225 -2.645581e-20)
(0.8882916 -3.910445 1.456337e-20)
(0.8055852 -3.150937 2.053325e-20)
(0.7350329 -2.617302 -2.066123e-20)
(0.9577755 -2.727755 4.409792e-18)
(1.804867 -4.104499 3.867108e-18)
(2.672998 -5.503014 0)
(3.122352 -5.977707 0)
(3.239756 -5.7396 -1.891059e-20)
(3.082111 -5.045282 4.212382e-18)
(2.679251 -4.07816 1.331185e-18)
(2.125376 -3.00583 -1.585409e-18)
(1.551506 -2.02058 5.43625e-19)
(0.9494405 -1.146883 4.409594e-21)
(0.2926242 -0.3274708 -1.03651e-20)
(-0.294325 0.2961093 5.891817e-21)
(-0.6770551 0.6497107 0)
(-0.6302777 0.6042743 2.726197e-19)
(0.08714072 0.04318546 0)
(1.849493 -1.227761 -1.579417e-18)
(3.234278 -2.106282 1.411534e-20)
(1.921086 -1.275149 1.38607e-20)
(-0.5229133 0.1661074 -1.413943e-20)
(-2.234985 1.064651 3.379817e-19)
(-3.927905 1.746063 -1.01691e-18)
(-6.411359 2.575944 0)
(-9.242347 3.411478 -4.187296e-20)
(-11.2554 3.942215 -6.362348e-18)
(-6.846168 2.523208 5.874456e-18)
(3.346775 -0.5690864 0)
(4.54333 -1.237339 -1.383792e-18)
(-2.125339 -0.03360256 -1.454358e-20)
(-4.446966 0.4368069 2.25582e-18)
(-4.773239 0.427716 -1.263794e-18)
(-3.092076 0.1070671 1.163034e-21)
(3.011407 0.209731 -2.813999e-19)
(8.054645 0.7725782 1.103754e-18)
(10.86923 1.39713 -1.82928e-20)
(12.28435 2.030002 1.793991e-20)
(13.04025 2.681023 0)
(13.45831 3.338167 -4.732093e-18)
(13.65399 3.971637 -4.738611e-18)
(13.65992 4.567107 0)
(13.54019 5.128218 -9.106957e-18)
(13.31649 5.65317 8.898512e-18)
(13.03393 6.151536 8.588357e-18)
(12.69406 6.612409 3.116647e-20)
(12.29094 7.02989 -7.739196e-18)
(11.83344 7.39952 0)
(11.33123 7.722624 0)
(10.79387 7.995447 6.081373e-18)
(10.21953 8.210137 5.492427e-18)
(9.626199 8.376787 3.525356e-20)
(9.020685 8.493983 4.10866e-18)
(8.391158 8.544009 6.922119e-18)
(7.750135 8.534384 2.761228e-18)
(7.105743 8.468166 2.00524e-18)
(6.471164 8.354312 -1.314012e-20)
(5.843711 8.183794 0)
(5.22085 7.950524 -1.547513e-19)
(4.616628 7.669372 0)
(4.02908 7.327156 1.619508e-18)
(3.465416 6.930691 -2.864374e-20)
(2.935463 6.489756 -2.46525e-21)
(2.438955 6.00215 1.295218e-20)
(1.980569 5.472602 -4.235428e-18)
(1.565722 4.908776 -1.968911e-20)
(1.195211 4.307922 2.683549e-18)
(0.8706808 3.670883 2.903744e-18)
(0.5974105 3.011754 0)
(0.3753557 2.337612 0)
(0.2086226 1.644752 3.397194e-18)
(0.09349661 0.942258 -8.217542e-23)
(0.03357306 0.2626404 9.040337e-19)
(0.02297843 -0.3850065 1.645891e-21)
(0.06624192 -1.101112 -6.682693e-21)
(0.1604377 -1.86744 -1.648128e-18)
(0.3138034 -2.622049 0)
(0.5240237 -3.347569 2.907748e-18)
(0.7874121 -4.041392 0)
(1.102174 -4.703051 -2.384149e-18)
(1.466159 -5.332211 2.061875e-18)
(1.87826 -5.927609 1.501924e-20)
(2.335243 -6.488508 2.849767e-18)
(2.834375 -7.007017 6.79637e-21)
(3.37129 -7.481299 -1.386347e-18)
(3.943296 -7.91267 -5.837466e-19)
(4.548004 -8.295358 1.144307e-21)
(5.183892 -8.632345 1.105106e-18)
(5.840943 -8.919449 -1.970817e-18)
(6.514923 -9.151575 2.550756e-20)
(7.19498 -9.315242 6.905993e-21)
(7.886801 -9.425813 -4.557946e-18)
(8.586066 -9.483311 0)
(9.28398 -9.479321 1.242438e-17)
(9.98369 -9.425318 6.979751e-18)
(10.665 -9.30652 1.173074e-19)
(11.32448 -9.12546 -8.723117e-18)
(11.95853 -8.88543 0)
(12.56637 -8.590609 0)
(13.14775 -8.249056 0)
(13.69397 -7.858587 0)
(14.19517 -7.420291 1.217161e-17)
(14.64878 -6.937975 1.28513e-17)
(15.05621 -6.416358 2.646311e-20)
(15.41329 -5.863097 -1.384899e-17)
(15.69922 -5.272104 -7.089627e-18)
(15.92944 -4.657013 -7.356389e-18)
(16.05256 -4.013658 5.767345e-20)
(16.03918 -3.342416 7.583798e-18)
(15.88354 -2.653802 3.930189e-18)
(15.56829 -1.959042 -3.044951e-20)
(15.01248 -1.272869 -7.574342e-21)
(14.03591 -0.6409399 4.963328e-19)
(12.14183 -0.1271041 -9.621386e-19)
(8.165138 0.1802311 -2.300154e-20)
(2.213897 0.1919902 1.656979e-20)
(-0.7595226 -0.154775 4.427404e-18)
(-4.078385 -1.18881 3.552132e-20)
(-7.408759 -2.053121 0)
(-6.920051 -1.956123 -8.870654e-18)
(-4.807236 -1.389627 -7.228878e-18)
(-2.509457 -0.70472 -6.006367e-21)
(0.1513299 0.341076 1.016012e-17)
(5.989025 3.049983 -6.612823e-18)
(5.941935 2.789122 0)
(-4.564476 -3.298423 0)
(-10.4108 -6.924914 -2.04789e-17)
(-9.783107 -6.709186 0)
(-7.766201 -5.740386 8.955695e-20)
(-5.967865 -4.786077 -1.026997e-17)
(-4.645294 -4.039573 -8.506896e-18)
(-3.530893 -3.29465 5.092657e-20)
(-2.23249 -2.171779 -1.184388e-17)
(-0.501288 -0.4158055 -7.005906e-20)
(1.561627 1.872209 6.638193e-18)
(1.983629 2.428987 3.220153e-18)
(0.996935 1.301816 3.415085e-18)
(0.3156366 0.3538942 3.988033e-18)
(-0.1591478 -0.3884012 0)
(-0.3529594 -0.6954042 -2.586532e-20)
(-0.2164069 -0.4030819 -6.97974e-18)
(0.1634031 0.5083144 0)
(0.6343108 1.572761 8.440829e-18)
(0.4017165 0.8384537 -6.528264e-20)
(-0.3514773 -1.122247 3.281774e-20)
(-0.05311336 0.1789739 3.971519e-18)
(0.247958 1.384617 -3.431225e-22)
(0.1665375 0.8784585 0)
(-0.1427232 -2.091134 2.036811e-18)
(-0.2533768 -4.973683 1.581096e-20)
(-0.1649726 -6.663514 4.231347e-21)
(0.02792267 -7.326673 -5.21517e-21)
(0.04822346 -8.220607 -4.503398e-19)
(0.3457732 -8.030262 8.625222e-19)
(0.6188191 -7.584002 0)
(0.8154823 -6.870907 1.485682e-18)
(0.9164311 -5.947716 0)
(0.9812717 -5.055954 4.942802e-18)
(1.167485 -4.674937 1.64765e-20)
(1.684574 -5.289426 -1.62036e-20)
(2.405996 -6.342457 -3.377772e-18)
(2.951372 -6.991853 -2.986539e-18)
(3.147492 -7.014857 0)
(3.186901 -6.598831 1.870058e-20)
(3.259678 -6.20605 -3.424714e-21)
(3.169348 -5.541108 -1.709238e-18)
(2.813129 -4.563901 -2.170729e-18)
(2.311371 -3.489641 6.360038e-19)
(1.707918 -2.41541 -4.284631e-19)
(0.9289853 -1.332706 -3.297345e-21)
(0.08868682 -0.2955109 0)
(-0.6543279 0.5115134 0)
(-1.073808 0.9462246 0)
(-1.054559 0.9859677 2.281504e-19)
(-0.4369238 0.5970468 -7.318712e-21)
(1.837963 -1.034395 7.062984e-21)
(3.700283 -2.494713 -1.350385e-20)
(1.70171 -1.451498 1.304593e-20)
(-0.2955704 -0.1988477 0)
(-1.53839 0.5452571 0)
(-2.912569 1.02729 1.669286e-18)
(-5.074378 1.608032 4.015781e-20)
(-7.870903 2.4437 -3.849307e-20)
(-9.506761 3.095113 5.443504e-18)
(-9.573791 3.615956 4.431421e-18)
(-0.2740249 0.8157145 -1.14956e-20)
(3.349305 -0.9784168 -1.136064e-18)
(1.43868 -0.729897 1.216178e-18)
(0.4844483 -0.2837474 3.559581e-21)
(1.089402 -0.07917965 1.02561e-18)
(6.159423 0.3125816 0)
(12.97581 0.7915342 1.87204e-19)
(16.29148 1.174546 1.552406e-18)
(17.10916 1.56948 1.692377e-18)
(17.28253 2.094227 1.780449e-18)
(17.24212 2.702147 -5.67633e-20)
(17.0944 3.338526 3.772941e-18)
(16.87313 3.968126 -2.888904e-20)
(16.59589 4.594351 0)
(16.26356 5.198361 7.264563e-18)
(15.88297 5.782793 0)
(15.45854 6.339706 -5.16273e-20)
(14.98021 6.85333 5.173326e-20)
(14.44631 7.320942 6.186745e-18)
(13.86414 7.736031 -4.302602e-20)
(13.24131 8.098168 5.333879e-18)
(12.58522 8.403827 -4.898172e-18)
(11.89939 8.649723 0)
(11.19405 8.843929 2.778202e-20)
(10.47631 8.982106 -3.375632e-18)
(9.74238 9.05171 -5.49872e-18)
(8.996966 9.054164 0)
(8.252266 8.999195 -1.612709e-18)
(7.517316 8.888297 -5.530977e-21)
(6.793075 8.714318 4.058788e-19)
(6.080239 8.476756 -3.609755e-21)
(5.385852 8.181151 3.651088e-21)
(4.715158 7.82378 -1.315743e-18)
(4.070951 7.408888 1.887916e-18)
(3.463736 6.941148 0)
(2.894638 6.425793 0)
(2.368826 5.866829 -1.550247e-20)
(1.890532 5.265922 0)
(1.462664 4.624405 0)
(1.087185 3.945119 0)
(0.769069 3.238786 -2.564644e-18)
(0.5067834 2.517107 2.047096e-20)
(0.3117479 1.773192 1.113543e-20)
(0.1726334 1.020426 -5.464444e-21)
(0.09744335 0.2876703 -7.431081e-19)
(0.08510566 -0.4158792 2.943482e-21)
(0.1477073 -1.184086 -7.129704e-19)
(0.2620115 -2.000703 1.342964e-18)
(0.4454556 -2.804217 1.018134e-20)
(0.693443 -3.576776 -2.35754e-18)
(1.001114 -4.317419 -3.405736e-20)
(1.367455 -5.025712 1.975398e-18)
(1.788671 -5.696351 -1.718334e-18)
(2.265093 -6.329537 0)
(2.789429 -6.925446 -4.660965e-18)
(3.360527 -7.470663 -1.13267e-20)
(3.975469 -7.969024 1.126327e-18)
(4.628545 -8.423777 4.795927e-19)
(5.317529 -8.82171 0)
(6.041098 -9.166278 0)
(6.790112 -9.462037 0)
(7.55773 -9.691111 2.011937e-20)
(8.338754 -9.850103 -1.998788e-20)
(9.132898 -9.950378 3.592521e-18)
(9.93471 -9.990151 5.608778e-21)
(10.74039 -9.965312 -5.031085e-18)
(11.54433 -9.88107 -7.723515e-20)
(12.33614 -9.732344 1.261525e-17)
(13.10769 -9.51611 6.948487e-18)
(13.85481 -9.235343 -5.630936e-20)
(14.58053 -8.896636 8.00681e-18)
(15.2799 -8.505292 6.522844e-20)
(15.94532 -8.055811 -7.373385e-20)
(16.56933 -7.553969 7.340091e-20)
(17.14853 -7.002224 8.071636e-20)
(17.68371 -6.407029 1.059886e-17)
(18.16974 -5.773418 -8.360841e-20)
(18.59695 -5.103173 0)
(18.95506 -4.396196 0)
(19.27853 -3.668319 0)
(19.55805 -2.931309 0)
(19.77784 -2.18871 2.348053e-20)
(19.92517 -1.446523 -2.342248e-20)
(19.99225 -0.7148439 1.476138e-18)
(19.94143 -0.03257419 5.72351e-21)
(19.69923 0.4923217 0)
(18.27534 0.7754138 -1.355062e-18)
(13.8165 0.8328931 2.776878e-18)
(6.214134 0.4495151 -3.15748e-18)
(-4.11359 -1.053841 6.396441e-20)
(-3.374738 -0.9177303 -9.169343e-18)
(-0.1521072 0.2742709 5.894433e-20)
(1.355826 0.8195808 0)
(2.234776 1.124366 9.967118e-18)
(3.147922 1.799333 -1.569509e-17)
(6.654113 3.574547 -5.208519e-18)
(4.557664 1.475092 3.290979e-20)
(-8.121034 -5.933068 -1.760864e-19)
(-10.46736 -6.743318 1.155656e-19)
(-9.531002 -5.979711 0)
(-7.712073 -5.18518 1.06211e-17)
(-5.980213 -4.396819 8.229789e-18)
(-4.691129 -3.789205 1.070542e-20)
(-3.641571 -3.156078 -5.867941e-18)
(-2.489035 -2.142594 9.524782e-18)
(-1.015762 -0.5174446 3.431596e-18)
(1.383127 2.107056 6.32574e-21)
(2.814206 3.528554 -2.584228e-18)
(1.39151 1.651584 -2.089549e-20)
(0.1908249 0.07957985 -3.244125e-18)
(-0.2078187 -0.4390809 3.63971e-20)
(-0.3284532 -0.5815127 6.511843e-21)
(-0.2361753 -0.2942235 -4.300919e-20)
(0.1028705 0.6155573 0)
(0.5435122 1.44805 0)
(0.6910421 1.420587 -6.905018e-18)
(0.09316293 0.1646144 0)
(0.07148141 0.8218312 -6.537004e-18)
(0.1058372 0.409466 3.338715e-18)
(-0.2242441 -2.823778 -2.505869e-20)
(-0.5507072 -6.409731 2.349718e-20)
(-0.6351518 -8.072422 1.61346e-18)
(-0.5062003 -8.331651 -8.699299e-19)
(-0.2558099 -8.285268 -4.359081e-19)
(0.2219513 -8.657142 3.626266e-19)
(0.5028091 -8.678899 -7.00048e-19)
(0.7593961 -8.47014 1.958426e-20)
(0.9750414 -8.00534 -1.218593e-18)
(1.156381 -7.374421 0)
(1.398151 -6.81903 -3.938562e-18)
(1.787874 -6.6725 -2.634896e-20)
(2.314331 -6.980702 1.565613e-18)
(2.758198 -7.18747 2.740636e-18)
(2.936695 -6.85989 2.479023e-18)
(2.963566 -6.416394 2.295071e-18)
(3.131985 -6.219317 -1.734363e-20)
(3.165526 -5.888412 0)
(2.90733 -5.16938 0)
(2.420204 -4.165726 8.751678e-19)
(1.83388 -3.059292 5.232737e-19)
(1.205747 -1.995178 3.597301e-19)
(0.4081191 -0.9398899 5.435086e-21)
(-0.3956726 0.05264987 0)
(-1.085148 0.8335123 5.742997e-19)
(-1.413384 1.238882 5.319613e-19)
(-1.286369 1.266909 -1.865225e-19)
(-0.6317289 0.9524087 0)
(0.9740549 -0.1179434 -1.021051e-18)
(2.86591 -1.89265 0)
(1.207857 -1.38867 1.382546e-18)
(0.2787403 -0.6743027 0)
(-0.3016643 -0.1725275 2.287375e-19)
(-1.244247 0.1131283 -1.387629e-18)
(-3.311259 0.5775908 0)
(-5.955957 1.496878 0)
(-7.26488 2.430563 4.096655e-20)
(-7.986538 3.611663 -3.606619e-18)
(-2.458379 1.89209 1.524204e-18)
(3.735033 -0.7766779 1.860735e-18)
(7.891857 -1.49043 -9.418973e-19)
(9.421434 -0.9482915 1.371534e-18)
(11.21641 -0.1310665 -7.155499e-19)
(14.42309 0.6888798 0)
(16.96447 1.21721 0)
(17.01673 1.475691 -1.256046e-18)
(16.79546 1.911748 -1.41178e-18)
(16.77743 2.523254 -2.90397e-18)
(16.71282 3.1767 2.959804e-18)
(16.59429 3.838887 7.11813e-20)
(16.40967 4.486126 -4.771324e-20)
(16.1604 5.107201 0)
(15.83888 5.692584 0)
(15.45749 6.249201 5.696035e-18)
(15.02982 6.776923 -5.503866e-18)
(14.55207 7.259863 0)
(14.02113 7.695831 0)
(13.44544 8.07792 7.050747e-20)
(12.83081 8.408415 -4.446938e-18)
(12.18593 8.681776 0)
(11.51454 8.894461 -3.50173e-18)
(10.82471 9.057769 -3.086177e-18)
(10.12531 9.166023 -2.617923e-18)
(9.413421 9.205046 2.204958e-18)
(8.690105 9.179461 -2.354661e-20)
(7.968517 9.099612 1.265956e-18)
(7.257368 8.966314 0)
(6.559538 8.770582 -3.298108e-19)
(5.875399 8.512358 6.286508e-21)
(5.208322 8.19971 7.341685e-21)
(4.569285 7.824936 -1.146883e-18)
(3.953508 7.397102 0)
(3.374197 6.918682 -2.044738e-18)
(2.831208 6.395562 -2.061773e-20)
(2.331842 5.830719 2.867648e-18)
(1.877414 5.226723 1.62231e-18)
(1.47187 4.584056 -1.793096e-18)
(1.11586 3.905678 -1.951451e-18)
(0.8140085 3.201596 2.087148e-18)
(0.5628814 2.484196 -2.211661e-18)
(0.3804195 1.744225 -1.124348e-18)
(0.2441641 0.9968333 2.352535e-18)
(0.1675025 0.2699214 1.215817e-18)
(0.1554484 -0.431381 2.434023e-21)
(0.2284856 -1.190121 5.903898e-19)
(0.3369177 -1.99515 -8.7892e-21)
(0.510385 -2.787107 0)
(0.7438638 -3.550787 -1.469244e-20)
(1.032098 -4.285666 -1.222855e-20)
(1.376731 -4.990395 -1.565827e-18)
(1.772327 -5.660042 2.824141e-18)
(2.22477 -6.293368 -1.207132e-18)
(2.720318 -6.893264 1.893459e-18)
(3.260615 -7.444954 1.314358e-20)
(3.846837 -7.951297 0)
(4.468675 -8.418107 4.446641e-19)
(5.126105 -8.830289 -6.067085e-21)
(5.820115 -9.190513 6.436305e-19)
(6.53914 -9.505808 0)
(7.276122 -9.757219 1.77337e-18)
(8.029864 -9.939234 0)
(8.797468 -10.06564 -5.201346e-20)
(9.572697 -10.13456 3.458447e-18)
(10.35593 -10.13873 0)
(11.1369 -10.08768 -4.627302e-18)
(11.90797 -9.974032 -5.176913e-18)
(12.66116 -9.794027 -5.696597e-18)
(13.39194 -9.550015 0)
(14.10538 -9.247053 -1.338082e-17)
(14.79444 -8.893079 1.071418e-19)
(15.45229 -8.480177 0)
(16.07129 -8.015712 0)
(16.64818 -7.500475 0)
(17.18444 -6.939969 8.595996e-18)
(17.67319 -6.34282 -8.922623e-18)
(18.10498 -5.706618 0)
(18.47685 -5.033702 0)
(18.78494 -4.332839 4.76208e-18)
(19.03363 -3.607209 3.814891e-20)
(19.21803 -2.861406 0)
(19.33012 -2.096492 0)
(19.37186 -1.331546 -2.464951e-18)
(19.35501 -0.5776389 2.997314e-19)
(19.39056 0.09473447 0)
(19.74087 0.5889095 1.055023e-18)
(19.34963 0.925255 4.214129e-20)
(15.14664 0.8582784 4.396088e-23)
(6.026375 0.2515193 -4.063247e-20)
(4.363909 1.175741 7.156696e-18)
(6.971631 2.606575 5.735303e-18)
(8.45186 3.278122 7.902854e-20)
(8.645631 3.4495 5.303868e-20)
(8.021794 3.720126 6.102723e-18)
(7.197318 3.666436 4.447859e-18)
(2.022391 -0.6869117 0)
(-7.4985 -6.421747 9.794138e-18)
(-7.963603 -5.464756 0)
(-7.75781 -4.6778 -1.593047e-19)
(-6.316481 -4.002789 -8.705087e-18)
(-4.934467 -3.429421 9.753463e-20)
(-3.883953 -2.987654 -1.008162e-19)
(-3.10032 -2.508909 4.915115e-18)
(-2.285511 -1.697849 -3.905916e-18)
(-1.311297 -0.3983751 -2.760187e-18)
(0.7908536 1.881339 -2.152788e-18)
(2.706417 3.35089 -2.115721e-18)
(1.388985 1.309089 0)
(0.3497251 0.08087715 -3.400807e-21)
(-0.03649291 -0.2993148 0)
(-0.2588392 -0.5179915 -4.238591e-18)
(-0.2810589 -0.2622241 4.737785e-18)
(-0.03354499 0.5583673 0)
(0.3637202 1.131281 0)
(0.7012284 1.258153 1.13823e-17)
(0.2689878 0.6534524 -2.744035e-18)
(-0.05782217 0.1206774 5.433812e-18)
(-0.2232428 -2.549829 -2.033997e-20)
(-0.4586912 -5.982233 1.860393e-20)
(-0.5498057 -7.797343 0)
(-0.485978 -7.991687 -1.318616e-18)
(-0.3059105 -8.155118 1.408813e-18)
(-0.04871562 -8.456451 3.632508e-19)
(0.1499259 -9.02528 -5.947137e-19)
(0.4814213 -9.218259 -1.732448e-20)
(0.7873322 -9.160937 1.716139e-20)
(1.048372 -8.840286 -2.87395e-20)
(1.290753 -8.360354 2.88718e-20)
(1.611643 -7.886103 1.593518e-18)
(2.004818 -7.524224 -2.126999e-20)
(2.364756 -7.227198 -1.284216e-18)
(2.551767 -6.84227 3.742441e-20)
(2.660523 -6.428581 -2.019846e-18)
(2.775193 -6.265893 -4.737069e-20)
(2.963742 -6.147527 0)
(2.958739 -5.74446 0)
(2.654186 -4.985843 -1.139396e-18)
(2.072194 -3.915727 -7.220555e-19)
(1.402304 -2.726568 -8.52825e-19)
(0.7416453 -1.625666 -2.950614e-19)
(-0.04669725 -0.6247445 0)
(-0.8165422 0.3139314 0)
(-1.424839 1.060315 -9.457008e-19)
(-1.6717 1.450803 -8.845953e-19)
(-1.437632 1.480668 -1.536868e-21)
(-0.6764677 1.16833 1.09471e-20)
(0.3214883 0.656465 1.656993e-18)
(1.739686 -1.000287 1.202985e-18)
(0.884601 -1.297931 -1.16303e-18)
(1.18088 -1.21026 -7.557222e-19)
(1.174566 -0.9602376 -1.824111e-19)
(0.3953284 -0.8263985 5.718815e-19)
(-1.532084 -0.5239476 0)
(-3.784533 0.3680124 -9.762832e-20)
(-4.956633 1.53776 -8.219644e-18)
(-4.878785 3.130077 6.883008e-20)
(-1.841496 2.383029 6.740767e-20)
(6.998799 -0.6802985 -6.825168e-19)
(13.24862 -1.726782 -6.871112e-19)
(15.15246 -1.279936 -4.406782e-20)
(16.47058 -0.2897053 -5.236407e-19)
(17.17177 0.67329 -2.393931e-19)
(17.00069 1.078115 -1.896636e-21)
(16.58263 1.193019 0)
(16.74077 1.565344 -1.809067e-20)
(16.86319 2.109654 1.220935e-18)
(16.87616 2.714419 -4.889093e-18)
(16.79229 3.358765 3.849997e-20)
(16.62595 3.995447 -2.492894e-18)
(16.37814 4.622487 -7.570734e-20)
(16.0611 5.213567 -4.756239e-18)
(15.68295 5.78042 -1.308766e-20)
(15.25697 6.326308 4.541207e-18)
(14.78231 6.825002 -4.254258e-18)
(14.25345 7.280715 0)
(13.67898 7.682657 5.682665e-20)
(13.06325 8.036312 -5.714859e-20)
(12.41563 8.333799 0)
(11.73966 8.571526 2.885493e-18)
(11.04418 8.759723 6.435665e-20)
(10.33782 8.892883 2.188399e-18)
(9.619033 8.95561 -1.750516e-18)
(8.890166 8.950418 -1.364963e-18)
(8.159455 8.892422 -1.022473e-18)
(7.439803 8.779577 -5.937345e-19)
(6.733713 8.6028 3.763527e-22)
(6.039919 8.362959 -3.79952e-22)
(5.362862 8.068079 0)
(4.714408 7.709375 9.313491e-19)
(4.088606 7.296739 -2.339959e-20)
(3.50025 6.831811 1.703545e-18)
(2.948679 6.320846 2.004741e-18)
(2.443182 5.766277 -2.325093e-18)
(1.982585 5.171752 -1.331688e-18)
(1.571796 4.537693 -3.294712e-21)
(1.211055 3.867417 1.600977e-18)
(0.9073491 3.17011 2.732219e-20)
(0.6521189 2.459699 1.772156e-18)
(0.4707074 1.724091 1.474782e-20)
(0.3321793 0.9798156 -9.830354e-19)
(0.2524365 0.2564024 -4.953695e-19)
(0.2396437 -0.4488442 -6.030474e-23)
(0.3246718 -1.198803 4.686424e-19)
(0.4330734 -1.991843 7.200543e-21)
(0.606397 -2.772487 -8.572492e-19)
(0.8424796 -3.526213 1.601819e-18)
(1.133802 -4.250937 0)
(1.482227 -4.944616 -3.843162e-21)
(1.881737 -5.602461 -1.162676e-18)
(2.340808 -6.223279 1.016681e-18)
(2.841496 -6.811176 -1.638396e-18)
(3.391876 -7.347924 1.588881e-20)
(3.989575 -7.838908 -1.574717e-20)
(4.6182 -8.292154 -3.655331e-19)
(5.28618 -8.687271 0)
(5.994967 -9.027783 -5.359396e-19)
(6.72187 -9.326829 3.031423e-20)
(7.468135 -9.558897 -6.611311e-20)
(8.232812 -9.719455 -1.834477e-18)
(9.009545 -9.82468 -2.407488e-18)
(9.793241 -9.871124 -1.392085e-20)
(10.58438 -9.851532 3.234894e-18)
(11.37413 -9.774546 -5.435702e-20)
(12.15138 -9.635633 -4.132894e-18)
(12.91018 -9.428512 0)
(13.64756 -9.154868 4.964122e-18)
(14.36462 -8.824928 5.436048e-18)
(15.05383 -8.446815 5.627719e-18)
(15.71093 -8.009096 -5.979987e-18)
(16.32746 -7.521705 6.402083e-18)
(16.90138 -6.983391 0)
(17.43381 -6.400155 -1.407352e-17)
(17.91774 -5.784811 1.47301e-17)
(18.34402 -5.130418 -1.750072e-19)
(18.70864 -4.442765 -3.815535e-18)
(19.01336 -3.729117 -3.900139e-18)
(19.25597 -2.995819 0)
(19.42589 -2.255246 2.044842e-18)
(19.51601 -1.512069 -2.047814e-18)
(19.51527 -0.7817808 1.020899e-18)
(19.4168 -0.09517721 -2.560104e-19)
(19.22968 0.4784351 -4.87822e-19)
(19.14431 0.8439655 1.415424e-20)
(19.79164 1.063148 -1.67828e-18)
(19.6851 1.085176 1.323092e-21)
(16.14491 1.429043 0)
(14.83362 3.122055 0)
(14.86501 4.645104 -1.167214e-19)
(14.61501 5.199042 1.179543e-19)
(13.93052 5.208938 0)
(12.54792 5.156007 0)
(9.016522 3.861892 0)
(1.233613 -2.143863 3.473875e-18)
(-4.947153 -5.799912 -1.65075e-17)
(-5.848696 -4.172982 1.271344e-17)
(-5.624954 -2.939821 -9.896032e-18)
(-4.205982 -2.172387 -2.419692e-19)
(-3.101261 -1.762735 5.880882e-18)
(-2.450078 -1.61717 5.005374e-18)
(-2.027462 -1.381089 5.864366e-20)
(-1.607674 -0.8214649 -1.342062e-20)
(-1.25638 0.04812325 -4.27225e-20)
(0.1289793 1.600181 -2.668798e-20)
(2.18555 2.648547 1.822659e-18)
(1.28275 0.7972059 0)
(0.538294 0.165182 2.183104e-18)
(0.04582588 -0.2556429 -2.887637e-18)
(-0.2624376 -0.5262343 3.496637e-18)
(-0.3828688 -0.3264302 0)
(-0.2293013 0.3665149 0)
(0.1648559 0.7221921 -7.502389e-20)
(0.6050788 0.7884959 -4.738618e-18)
(0.2929586 0.4442345 2.313538e-18)
(-0.256675 -1.842914 -2.155631e-18)
(-0.3981094 -5.058025 0)
(-0.4703048 -7.203426 0)
(-0.4916847 -7.542943 0)
(-0.5044735 -7.663301 -1.077205e-18)
(-0.3901966 -8.17347 -5.980649e-19)
(-0.1550049 -8.655515 -5.950917e-19)
(0.2645914 -9.136075 2.435588e-19)
(0.5245587 -9.357468 0)
(0.7827735 -9.295958 -8.700261e-19)
(1.003834 -8.960789 0)
(1.225071 -8.461405 -1.42168e-18)
(1.542878 -7.930597 0)
(1.910285 -7.40638 0)
(2.186177 -6.88154 -1.036275e-18)
(2.366046 -6.442809 -1.855835e-18)
(2.614615 -6.236326 1.705496e-18)
(2.802903 -6.206263 -1.560134e-18)
(2.968932 -6.070634 1.423929e-18)
(2.871881 -5.719776 0)
(2.489732 -4.991077 1.866232e-18)
(1.838916 -3.922692 5.899655e-19)
(1.119978 -2.682019 3.574312e-19)
(0.4355238 -1.520933 -9.440441e-21)
(-0.3589693 -0.5315622 -8.352628e-21)
(-1.133639 0.4210674 -3.023002e-19)
(-1.668154 1.170616 7.967409e-19)
(-1.849604 1.587839 3.682181e-19)
(-1.516405 1.666641 -2.00761e-21)
(-0.6702137 1.340227 -2.618467e-19)
(0.1895446 0.9893535 -6.859083e-19)
(0.8864367 -0.226522 -9.919007e-19)
(0.9257488 -1.255676 0)
(2.303484 -1.733648 -7.671127e-21)
(2.717772 -1.725771 0)
(2.131597 -1.819779 4.280807e-19)
(0.6186215 -1.789095 1.667259e-18)
(-1.06272 -0.9599804 4.421494e-18)
(-1.961575 0.5780963 -2.438506e-19)
(-1.188128 2.413685 9.135106e-20)
(0.8153303 2.554116 -2.037757e-18)
(10.59245 -0.3461273 0)
(15.35865 -1.517108 -5.14068e-19)
(16.31351 -1.313901 -8.024413e-19)
(17.07287 -0.385415 8.474273e-19)
(16.87198 0.5997771 1.91107e-19)
(16.38165 1.095836 0)
(16.32758 1.397929 4.286923e-19)
(16.49902 1.886682 0)
(16.58361 2.474082 0)
(16.57742 3.095112 2.039054e-18)
(16.48691 3.738864 -3.125867e-20)
(16.32346 4.353952 4.116884e-20)
(16.0807 4.959536 -1.974303e-18)
(15.76914 5.523694 3.993984e-18)
(15.39676 6.061961 -3.813724e-18)
(14.97945 6.579127 -3.665096e-18)
(14.51992 7.038584 1.795467e-19)
(14.00466 7.460707 -1.059741e-19)
(13.44725 7.827451 -9.204229e-20)
(12.84808 8.151184 -2.623683e-18)
(12.21943 8.420636 -2.630352e-18)
(11.56314 8.630726 -6.715523e-20)
(10.88501 8.79762 2.109741e-18)
(10.20048 8.909352 0)
(9.50521 8.950855 1.441461e-18)
(8.794289 8.931149 1.123656e-18)
(8.082364 8.86071 7.593169e-19)
(7.383735 8.736873 4.885288e-19)
(6.697816 8.551605 0)
(6.02421 8.303816 0)
(5.363888 8.006013 -4.994856e-19)
(4.734744 7.643742 0)
(4.122796 7.231831 0)
(3.549853 6.768438 1.460444e-18)
(3.0142 6.259812 -3.475421e-20)
(2.517908 5.710875 -1.102824e-20)
(2.064709 5.12177 -3.589251e-20)
(1.661717 4.493084 2.458775e-18)
(1.309291 3.828043 0)
(1.01513 3.135815 0)
(0.7561713 2.435684 1.498848e-18)
(0.5799516 1.705913 7.429345e-19)
(0.4384065 0.9645688 7.924308e-19)
(0.3549615 0.2455601 -4.053857e-19)
(0.341442 -0.465683 0)
(0.4431063 -1.203828 -2.839534e-22)
(0.5528128 -1.984745 2.276977e-20)
(0.7153834 -2.755633 6.801119e-19)
(0.9434697 -3.498308 -1.313315e-18)
(1.228662 -4.210747 -3.623996e-20)
(1.570828 -4.892851 1.094777e-18)
(1.96322 -5.540456 3.189321e-20)
(2.414977 -6.153081 1.646958e-18)
(2.90027 -6.736903 -1.494197e-20)
(3.435892 -7.269914 -1.052898e-18)
(4.023275 -7.758643 2.648519e-20)
(4.635826 -8.213556 0)
(5.282012 -8.612439 -3.720973e-21)
(5.975838 -8.956262 0)
(6.687518 -9.261303 0)
(7.410634 -9.504095 -1.161797e-18)
(8.155087 -9.674915 3.0261e-18)
(8.914397 -9.791493 6.503126e-20)
(9.676806 -9.85341 -1.197525e-19)
(10.44759 -9.850425 -2.657666e-18)
(11.21652 -9.794406 -2.974729e-18)
(11.97332 -9.678097 3.517005e-18)
(12.71052 -9.497618 -3.793777e-18)
(13.4261 -9.253549 -7.537964e-20)
(14.12617 -8.950713 0)
(14.79771 -8.604962 -4.871309e-18)
(15.43941 -8.199005 1.024913e-17)
(16.0416 -7.74673 -5.445639e-18)
(16.60218 -7.244252 0)
(17.1253 -6.695878 9.397717e-20)
(17.59997 -6.119293 -5.902051e-18)
(18.01963 -5.498047 -9.437203e-20)
(18.3818 -4.841882 1.490744e-19)
(18.68589 -4.150875 -9.936121e-20)
(18.92606 -3.442815 0)
(19.09699 -2.721943 -3.260919e-18)
(19.18965 -1.986911 1.594457e-18)
(19.19787 -1.258438 8.039396e-19)
(19.11901 -0.5426325 -1.272213e-20)
(18.98391 0.1026092 3.936036e-19)
(18.80271 0.6165937 7.435899e-19)
(18.95511 0.9694287 0)
(20.03398 1.160233 1.372608e-18)
(20.21542 2.128307 -1.00914e-19)
(19.7301 4.218839 3.719171e-18)
(18.62634 5.687046 0)
(17.29479 6.046423 0)
(16.08703 5.889196 0)
(14.79573 5.620192 4.945712e-20)
(10.94032 3.737178 2.529188e-18)
(2.196268 -2.801574 -2.997401e-18)
(-1.851694 -4.682465 7.265249e-18)
(-3.768522 -2.977521 -2.186044e-17)
(-3.528418 -1.221108 8.498773e-18)
(-2.123411 -0.3476615 0)
(-0.6538576 0.2924405 -5.061376e-18)
(-0.2803064 0.2643422 -4.2708e-18)
(-0.3724033 0.2052928 3.694758e-18)
(-0.4412304 0.409772 -9.903583e-20)
(-0.7558121 0.7859798 -5.318454e-20)
(-0.3765038 1.341946 5.234979e-20)
(1.501191 1.697932 0)
(1.192861 0.3899467 -1.486833e-18)
(0.6695367 0.1984675 6.414446e-20)
(0.1089575 -0.3033727 4.664625e-18)
(-0.2744949 -0.632849 -2.96348e-18)
(-0.522647 -0.4988421 1.986024e-19)
(-0.470034 0.05659915 -3.570202e-18)
(-0.04543167 0.3216277 0)
(0.455095 0.32893 -3.969026e-18)
(0.269593 -0.3638365 1.850347e-18)
(-0.3204655 -3.774213 -1.046697e-19)
(-0.3708598 -6.3251 1.674058e-18)
(-0.3670817 -7.12131 -7.470049e-20)
(-0.396453 -7.106091 2.59797e-20)
(-0.3795465 -7.564485 9.060739e-19)
(-0.2225192 -8.161762 -7.505891e-21)
(0.005325408 -8.706654 8.432862e-21)
(0.2930137 -8.971502 1.223176e-20)
(0.5211169 -9.149621 3.731414e-19)
(0.7148759 -9.058688 7.193698e-19)
(0.8861392 -8.714971 -6.493286e-19)
(1.084913 -8.209616 1.173746e-18)
(1.384092 -7.655306 0)
(1.737167 -7.104383 8.945974e-19)
(2.028683 -6.621173 9.178441e-19)
(2.279349 -6.322137 1.540313e-18)
(2.611082 -6.233019 0)
(2.754575 -6.222226 0)
(2.906636 -6.069275 -1.171054e-18)
(2.798327 -5.759721 -2.777184e-20)
(2.354562 -5.084335 -7.350285e-19)
(1.650629 -4.054675 -4.866787e-19)
(0.8972484 -2.802454 -2.893588e-19)
(0.1916417 -1.583831 2.109811e-19)
(-0.6285978 -0.5800952 -1.970881e-19)
(-1.409347 0.4271775 2.3641e-19)
(-1.868249 1.197088 -3.22566e-19)
(-1.982825 1.68509 0)
(-1.577908 1.862534 0)
(-0.6488404 1.537333 2.15788e-19)
(0.3538892 1.039954 0)
(0.6096867 0.1549024 2.659057e-20)
(1.450232 -1.322161 -4.675452e-21)
(3.608181 -2.201001 4.972827e-19)
(4.322098 -2.444443 1.029945e-20)
(4.009693 -2.864955 7.51401e-21)
(3.086903 -3.166006 -1.334241e-18)
(2.18624 -2.49321 2.246815e-20)
(1.68417 -0.7006681 2.982107e-18)
(2.211209 1.720682 -5.14542e-20)
(5.204749 2.511752 8.704015e-19)
(13.38643 0.1758848 -2.012761e-20)
(15.30964 -1.128104 1.715058e-18)
(15.71918 -1.153668 1.666364e-20)
(16.47215 -0.3462607 -1.325059e-20)
(16.39003 0.5066799 -3.253075e-19)
(16.26662 0.9693479 -2.610577e-21)
(16.37027 1.250235 -3.552989e-19)
(16.52663 1.670199 -2.389373e-20)
(16.6221 2.196844 -7.521703e-19)
(16.61994 2.768802 1.582874e-18)
(16.52978 3.393852 -1.600102e-18)
(16.36559 4.003259 3.136498e-18)
(16.12321 4.614083 1.727469e-18)
(15.81431 5.189331 0)
(15.44004 5.747068 0)
(15.02248 6.286389 2.971915e-18)
(14.56304 6.765648 2.832508e-18)
(14.04734 7.20657 0)
(13.49193 7.58563 -7.366055e-20)
(12.89258 7.923505 2.37954e-18)
(12.26106 8.211759 2.095375e-18)
(11.60536 8.433651 1.800669e-18)
(10.93273 8.606143 -4.635231e-20)
(10.25015 8.729825 -1.298883e-18)
(9.552399 8.786792 3.08109e-20)
(8.845998 8.772868 -3.108899e-20)
(8.142162 8.706022 -6.389544e-19)
(7.446568 8.591271 3.453432e-19)
(6.757261 8.420811 0)
(6.091735 8.177201 0)
(5.434229 7.889225 8.295552e-19)
(4.81406 7.532728 -7.65484e-21)
(4.206573 7.129433 -7.313798e-21)
(3.648882 6.670443 -1.12616e-18)
(3.121946 6.168808 -2.736292e-18)
(2.619927 5.636562 1.49726e-18)
(2.170011 5.059703 -1.758152e-18)
(1.77176 4.441719 -9.61664e-19)
(1.427284 3.785126 -3.260507e-20)
(1.140639 3.096478 0)
(0.876126 2.40943 -1.170187e-18)
(0.7136862 1.689233 -3.92462e-20)
(0.5668121 0.9504784 -6.587944e-19)
(0.4802439 0.2368344 3.472763e-19)
(0.4672437 -0.4802154 -4.798607e-23)
(0.5845732 -1.204151 -3.335979e-19)
(0.6867863 -1.977202 2.827469e-20)
(0.8430122 -2.736044 -5.933254e-19)
(1.061422 -3.460073 1.077233e-18)
(1.340118 -4.15553 -1.02647e-18)
(1.678 -4.824481 2.855123e-21)
(2.06676 -5.460318 8.208942e-19)
(2.523136 -6.061264 -1.312173e-18)
(2.999418 -6.639312 1.090126e-18)
(3.524118 -7.166793 7.892977e-19)
(4.112599 -7.646995 8.46027e-21)
(4.733455 -8.089526 8.868759e-21)
(5.372221 -8.481462 7.872688e-21)
(6.049413 -8.826587 -2.649177e-19)
(6.761511 -9.123091 2.339952e-20)
(7.48386 -9.355555 8.552781e-19)
(8.220472 -9.520027 -2.443658e-18)
(8.972081 -9.632828 1.51716e-18)
(9.739902 -9.676748 -5.618493e-20)
(10.50803 -9.663684 -2.147699e-18)
(11.26942 -9.603507 4.901593e-18)
(12.02655 -9.473443 8.93746e-20)
(12.76072 -9.282244 2.942188e-18)
(13.47646 -9.02168 -3.414259e-18)
(14.17817 -8.701792 1.057979e-19)
(14.84803 -8.342937 -3.858148e-18)
(15.48966 -7.918224 -3.935021e-18)
(16.09011 -7.450394 1.356068e-19)
(16.65098 -6.925279 -4.528154e-18)
(17.17352 -6.356208 4.675675e-18)
(17.64668 -5.761044 0)
(18.06346 -5.122716 0)
(18.41974 -4.448068 2.557719e-18)
(18.71736 -3.747124 2.570059e-18)
(18.95581 -3.03624 0)
(19.12436 -2.317811 1.397353e-18)
(19.21877 -1.591722 1.290105e-18)
(19.22955 -0.8886273 -6.733693e-19)
(19.15133 -0.2196298 1.574836e-19)