/*--------------------------------*- C++ -*----------------------------------*\
| =========                 |                                                 |
| \\      /  F ield         | OpenFOAM: The Open Source CFD Toolbox           |
|  \\    /   O peration     | Version:  2406                                  |
|   \\  /    A nd           | Website:  www.openfoam.com                      |
|    \\/     M anipulation  |                                                 |
\*---------------------------------------------------------------------------*/
FoamFile
{
    version     2.0;
    format      ascii;
    arch        "LSB;label=32;scalar=64";
    class       volScalarField;
    location    "1.28";
    object      p;
}
// * * * * * * * * * * * * * * * * * * * * * * * * * * * * * * * * * * * * * //

dimensions      [0 2 -2 0 0 0 0];

internalField   nonuniform List<scalar> 
15536
(
-18.76828
-22.18164
-23.98704
-25.11226
-27.03252
-29.91425
-34.0164
-38.77182
-43.56401
-46.95035
-48.56495
-48.481
-47.17433
-45.47723
-44.23358
-43.58922
-43.8011
-44.5919
-46.46649
-51.40332
-60.68992
-74.01408
-87.25981
-92.09049
-81.47935
-60.03531
-41.52582
-34.31811
-44.10239
-58.00229
-65.31775
-68.90756
-77.53261
-102.2718
-136.2176
-140.8464
-106.3561
-89.13997
-99.37555
-102.66
-101.688
-103.7234
-105.7308
-106.4215
-106.1335
-104.8098
-102.6214
-99.52138
-95.98664
-92.14494
-87.6767
-82.68504
-77.12616
-71.23416
-64.9541
-58.36058
-51.76741
-45.08903
-38.10162
-30.98579
-24.0069
-17.1701
-10.38118
-3.701949
2.743607
9.040483
15.03489
20.70131
25.93736
30.74459
35.08112
38.94678
42.30975
45.10233
47.28671
48.95984
49.98753
50.44266
50.35488
49.76328
48.44244
46.45787
43.88456
40.73055
37.01708
32.76377
28.0429
22.76312
17.09437
11.0857
4.577484
-2.23496
-9.280749
-16.75181
-24.36074
-31.9
-39.60277
-47.44585
-55.23803
-63.06063
-70.742
-78.0984
-85.08507
-91.79097
-98.34198
-104.4151
-109.9873
-115.0069
-119.4933
-123.516
-126.7789
-129.1912
-130.8061
-131.6067
-131.4442
-129.9719
-126.8795
-121.8354
-114.9572
-108.7255
-102.8379
-111.6927
-146.6154
-149.0908
-107.6213
-69.49493
-47.83424
-26.62756
-7.386644
-62.54971
-128.4678
-124.1777
-81.28917
-50.60387
-28.89304
-12.26379
-0.6073174
-1.277987
0.549686
0.5200103
-8.872697
-10.01263
-5.651924
-1.135795
-6.838137
-25.28417
-43.09178
-46.97645
-26.77575
-17.44165
-49.79155
-41.15071
-13.08312
-13.21034
-24.2987
-26.94639
-19.32371
-18.73115
-22.12014
-23.88421
-25.02552
-26.98826
-29.8991
-34.01888
-38.78059
-43.5717
-46.95311
-48.57141
-48.4865
-47.17731
-45.47366
-44.22124
-43.5699
-43.7798
-44.57115
-46.45279
-51.40944
-60.70354
-74.02088
-87.23887
-92.07907
-81.47903
-60.03825
-41.4751
-34.24729
-44.16689
-58.06026
-65.34614
-68.88482
-77.49444
-102.2615
-136.2823
-140.9197
-106.2432
-89.08489
-99.32603
-102.544
-101.3522
-103.0587
-104.7785
-105.2339
-104.8456
-103.4882
-101.2879
-98.18879
-94.66432
-90.85031
-86.41363
-81.46107
-75.94471
-70.10303
-63.87928
-57.34383
-50.8097
-44.19507
-37.27624
-30.22545
-23.31222
-16.54179
-9.81615
-3.199738
3.184074
9.419337
15.3542
20.96625
26.15261
30.91351
35.20899
39.03882
42.37087
45.13995
47.30485
48.96474
49.98602
50.43914
50.35331
49.76752
48.45816
46.49342
43.94598
40.82331
37.1469
32.93684
28.26393
23.03786
17.42986
11.48148
5.039099
-1.699953
-8.67645
-16.07773
-23.60651
-31.0674
-38.69375
-46.4566
-54.16942
-61.91386
-69.5191
-76.80023
-83.71585
-90.36006
-96.85451
-102.8706
-108.3941
-113.3688
-117.8187
-121.8159
-125.0597
-127.4673
-129.0946
-129.9255
-129.8174
-128.4443
-125.551
-120.8526
-114.3589
-108.4945
-102.7848
-111.46
-146.4568
-148.9965
-107.6814
-69.54827
-48.00022
-26.84662
-7.222634
-62.72772
-128.8718
-124.035
-80.99734
-50.42766
-28.85988
-12.33361
-0.6940395
-1.272595
0.5983851
0.5359631
-8.875724
-10.02414
-5.708458
-1.21822
-6.888085
-25.18673
-42.85914
-46.87871
-26.58818
-17.36132
-49.72755
-41.30241
-13.30297
-13.35503
-24.35715
-26.91596
-19.31414
-18.86853
-22.15924
-23.86213
-24.98436
-26.97518
-29.9058
-34.04052
-38.80766
-43.60132
-46.98096
-48.59811
-48.5113
-47.19878
-45.47937
-44.21156
-43.54491
-43.73848
-44.52225
-46.42789
-51.44368
-60.76729
-74.10511
-87.35477
-92.25758
-81.66488
-60.24998
-41.56738
-34.15747
-44.20169
-58.06943
-65.34058
-68.87472
-77.53123
-102.4006
-136.5823
-141.2818
-106.523
-89.09342
-98.55009
-101.6589
-100.7563
-102.3267
-103.8803
-104.3532
-104.032
-102.7011
-100.5374
-97.45689
-93.94454
-90.15731
-85.73342
-80.80662
-75.31539
-69.50181
-63.31383
-56.79415
-50.28767
-43.713
-36.81977
-29.79828
-22.91645
-16.18388
-9.494452
-2.905739
3.440083
9.647656
15.5502
21.13285
26.29103
31.02557
35.29503
39.10153
42.41263
45.16666
47.31439
48.9641
49.97934
50.43015
50.34678
49.76676
48.46573
46.51643
43.98707
40.88542
37.23359
33.0503
28.40814
23.20862
17.63455
11.72196
5.31002
-1.390861
-8.326379
-15.6935
-23.18386
-30.59956
-38.19061
-45.91877
-53.58594
-61.30652
-68.87554
-76.12657
-83.01261
-89.61082
-96.0739
-102.0553
-107.5557
-112.5057
-116.9324
-120.9121
-124.1312
-126.5104
-128.1048
-128.907
-128.7654
-127.3215
-124.3688
-119.7882
-113.6641
-108.1116
-102.7544
-111.856
-146.7489
-149.6871
-107.9429
-69.62196
-48.04526
-26.82635
-6.827957
-64.17683
-130.8891
-124.7043
-80.92334
-50.28574
-28.85653
-12.52313
-0.9564156
-1.371162
0.5192889
0.36421
-9.072455
-10.13573
-5.870284
-1.417479
-7.078852
-25.2935
-42.95497
-47.28442
-26.98723
-17.66938
-50.31801
-41.85939
-13.78754
-13.603
-24.56388
-27.06156
-19.43862
-19.20516
-22.20583
-23.79918
-24.92908
-26.96914
-29.92753
-34.08373
-38.86091
-43.65937
-47.0365
-48.65169
-48.56305
-47.24537
-45.49968
-44.20618
-43.50947
-43.67765
-44.46141
-46.41049
-51.52972
-60.89493
-74.28829
-87.63816
-92.65786
-82.04715
-60.71062
-41.8417
-33.85777
-44.05961
-57.84588
-65.1303
-68.82961
-77.61263
-102.6219
-136.8293
-141.4925
-107.449
-89.60018
-97.60703
-100.3058
-99.83898
-101.2789
-102.563
-102.7957
-102.331
-100.9615
-98.82486
-95.76943
-92.2783
-88.54374
-84.18875
-79.33432
-73.91258
-68.17208
-62.06472
-55.62554
-49.19394
-42.70456
-35.9063
-28.95896
-22.15265
-15.50199
-8.89295
-2.374192
3.894394
10.03647
15.87384
21.40153
26.50464
31.1887
35.41434
39.18394
42.46281
45.19514
47.31872
48.95626
49.96466
50.41295
50.33296
49.75956
48.46697
46.53964
44.03633
40.96604
37.35307
33.21584
28.62883
23.48037
17.97567
12.13161
5.785694
-0.8274152
-7.6818
-14.97796
-22.36635
-29.68654
-37.19259
-44.8192
-52.38733
-60.01253
-67.48442
-74.62932
-81.41071
-87.93102
-94.31443
-100.201
-105.6234
-110.489
-114.8551
-118.7956
-121.9644
-124.3016
-125.8846
-126.7044
-126.6132
-125.3215
-122.5948
-118.2953
-112.6764
-107.6421
-103.1792
-112.9329
-146.3567
-148.8297
-107.7451
-69.57564
-47.82676
-26.34867
-6.598655
-67.11094
-134.3372
-125.9505
-81.02131
-50.1693
-28.85218
-12.81204
-1.39242
-1.475885
0.2696977
-0.1330626
-9.495994
-10.37342
-6.198764
-1.812487
-7.510104
-25.64554
-43.23947
-48.15676
-28.47308
-18.96238
-51.69565
-42.81978
-14.44835
-13.87966
-24.77157
-27.21679
-19.80607
-19.67899
-22.30256
-23.78461
-24.88742
-26.99063
-29.98196
-34.16753
-38.96147
-43.77082
-47.13923
-48.75325
-48.66065
-47.33058
-45.54197
-44.21048
-43.4678
-43.59516
-44.37553
-46.39814
-51.67752
-61.10061
-74.61204
-88.16714
-93.39635
-82.6943
-61.40553
-42.30689
-33.53177
-43.64418
-57.16355
-64.67058
-68.76957
-77.71151
-102.4453
-135.9972
-140.5984
-108.2784
-90.97011
-96.9723
-98.93836
-98.8047
-100.1673
-101.3214
-101.4877
-101.1292
-99.74786
-97.63331
-94.57206
-91.04375
-87.36093
-82.99883
-78.1793
-72.76937
-67.07334
-61.02676
-54.61044
-48.22652
-41.81705
-35.07918
-28.17694
-21.43114
-14.85868
-8.31752
-1.849894
4.342665
10.43114
16.20681
21.67881
26.7221
31.35903
35.53968
39.26965
42.5083
45.21562
47.31197
48.93505
49.93661
50.38272
50.30735
49.73944
48.45235
46.55521
44.08606
41.05119
37.47951
33.38814
28.85808
23.75774
18.32819
12.54695
6.250427
-0.2695771
-7.044082
-14.3001
-21.60019
-28.82767
-36.27416
-43.83167
-51.30696
-58.8825
-66.29352
-73.37502
-80.09976
-86.5584
-92.91154
-98.7404
-104.1436
-108.9771
-113.3197
-117.2854
-120.4074
-122.7553
-124.3391
-125.1779
-125.0755
-123.6754
-120.9564
-116.8282
-111.633
-107.1432
-103.895
-113.2552
-142.2929
-143.8012
-105.8915
-69.20514
-47.48938
-25.6821
-7.481782
-71.06182
-139.0512
-127.9791
-81.28368
-50.09051
-28.80051
-13.09142
-1.836587
-1.36376
-0.07414225
-0.9842916
-10.1765
-10.81594
-6.761309
-2.518392
-8.264997
-26.34989
-43.87276
-49.65184
-31.31465
-21.70386
-53.87299
-44.21695
-15.0611
-13.93206
-24.51265
-26.9453
-20.31804
-20.20577
-22.38822
-23.79492
-24.85247
-27.04785
-30.08227
-34.31202
-39.13111
-43.96402
-47.30663
-48.9249
-48.83048
-47.47561
-45.6195
-44.23333
-43.42359
-43.48475
-44.25186
-46.38064
-51.84549
-61.42919
-75.14232
-89.04922
-94.61561
-83.72984
-62.37781
-43.13289
-33.44191
-43.08749
-56.19675
-63.9346
-68.67025
-77.66262
-100.9848
-131.8213
-136.1023
-107.7528
-92.44538
-96.28693
-97.45181
-97.48009
-98.63481
-99.55405
-99.4193
-98.8851
-97.46255
-95.45903
-92.44842
-88.95311
-85.40823
-81.12443
-76.42009
-71.09249
-65.47898
-59.5319
-53.18922
-46.91087
-40.62296
-33.97111
-27.14914
-20.51024
-14.03655
-7.588682
-1.193304
4.891485
10.91188
16.60121
21.9881
26.96553
31.5561
35.68069
39.36064
42.54419
45.22969
47.2911
48.89195
49.88796
50.33187
50.26172
49.69854
48.41843
46.55511
44.13271
41.14444
37.62332
33.58833
29.12124
24.07035
18.75038
13.05813
6.802666
0.3952409
-6.235804
-13.43135
-20.62595
-27.71056
-35.04834
-42.51053
-49.86049
-57.32609
-64.62316
-71.58852
-78.17955
-84.52911
-90.80639
-96.49668
-101.8126
-106.5242
-110.7705
-114.6474
-117.6866
-119.9273
-121.3871
-122.2527
-122.2722
-121.0716
-118.597
-114.7917
-110.1828
-106.3076
-104.1777
-111.9567
-134.355
-134.5988
-102.4845
-68.69556
-47.61961
-25.92237
-10.66034
-76.07852
-144.9884
-130.91
-81.89531
-50.03685
-28.64268
-13.21818
-2.13156
-0.6109811
-0.1761713
-2.142059
-11.20331
-11.54173
-7.608614
-3.612437
-9.353065
-27.6941
-45.08076
-52.03874
-35.79077
-26.21746
-56.86782
-45.97125
-15.29046
-13.43688
-23.29156
-25.85412
-20.71256
-20.74302
-22.48929
-23.85772
-24.86703
-27.17604
-30.24748
-34.52262
-39.37926
-44.22441
-47.59203
-49.20771
-49.11233
-47.71406
-45.75175
-44.29029
-43.37705
-43.32812
-44.06402
-46.2979
-51.97644
-61.84445
-75.93667
-90.43843
-96.5174
-85.30304
-63.76045
-44.607
-33.99844
-42.86961
-55.14552
-62.973
-68.47638
-77.41903
-98.10977
-123.8902
-127.6056
-105.3708
-93.20596
-95.26447
-95.88818
-96.03501
-97.01979
-97.85036
-97.53313
-97.22923
-95.61813
-93.60018
-90.55519
-86.98514
-83.54199
-79.24024
-74.64648
-69.3395
-63.74499
-57.92479
-51.70061
-45.4873
-39.25936
-32.74194
-26.04923
-19.49069
-13.06266
-6.784805
-0.4579108
5.495402
11.44863
17.01768
22.31921
27.29081
31.77882
35.81654
39.42665
42.55681
45.2675
47.25229
48.82621
49.81437
50.2516
50.18699
49.64534
48.38582
46.51521
44.12816
41.20142
37.74863
33.80961
29.42662
24.40059
19.19903
13.6507
7.48251
1.122504
-5.395319
-12.418
-19.52038
-26.50368
-33.70771
-40.9848
-48.29182
-55.67381
-62.79057
-69.68478
-76.12652
-82.37787
-88.62549
-94.18261
-99.47767
-104.0808
-108.3168
-112.2628
-115.2291
-117.5213
-119.1954
-120.0607
-119.977
-118.7156
-116.3382
-112.7622
-108.7012
-105.336
-103.9088
-109.8273
-126.0927
-125.4767
-98.77569
-68.32716
-48.3984
-27.80771
-16.79936
-82.63567
-151.2996
-134.6403
-83.56224
-50.07691
-28.21319
-13.14956
-2.257453
1.219461
0.2920086
-3.524038
-12.68986
-12.57389
-8.888625
-5.01783
-11.05663
-30.28373
-47.50302
-55.73333
-42.31231
-32.94939
-59.89494
-47.26784
-14.78055
-12.3663
-21.14731
-24.18698
-20.93539
-21.23507
-22.61695
-24.08598
-25.02896
-27.43009
-30.53641
-34.81271
-39.73711
-44.51517
-48.09406
-49.67171
-49.52366
-48.08198
-45.97067
-44.3921
-43.33325
-43.10195
-43.7483
-46.05297
-52.05591
-62.20509
-76.94368
-92.55902
-99.40884
-87.63106
-65.86154
-47.09603
-35.45687
-43.29267
-54.22282
-62.14674
-68.51212
-77.08191
-94.52097
-114.9591
-118.4869
-102.2591
-93.07449
-93.66974
-93.97679
-94.11746
-94.80404
-95.63196
-94.72402
-94.19979
-92.77526
-90.87491
-88.07486
-84.26777
-81.01794
-76.85314
-72.43771
-67.09657
-61.5836
-56.1208
-50.05936
-43.60688
-37.55119
-31.42433
-24.89377
-18.16548
-11.85939
-5.972402
0.3830133
6.125809
12.05495
17.39056
22.77627
27.75416
31.99181
35.91666
39.43093
42.54324
45.29765
47.15069
48.74424
49.71076
50.13595
50.0857
49.59016
48.31917
46.43741
44.04008
41.18761
37.81537
33.99601
29.81509
24.77457
19.66028
14.28342
8.447252
2.153869
-4.624328
-11.33261
-18.04894
-25.17989
-32.30434
-39.10426
-46.24256
-53.9357
-60.55986
-67.46098
-73.70997
-79.7663
-86.00881
-91.28691
-96.62378
-100.9431
-105.031
-109.0216
-111.8046
-113.9667
-115.2541
-116.2327
-116.4356
-115.3009
-113.188
-109.9265
-106.5944
-103.8546
-102.9783
-107.4732
-118.8253
-116.7613
-94.4718
-68.54595
-50.12321
-31.13358
-25.44927
-90.38767
-155.7408
-137.0755
-86.05164
-50.70847
-27.32618
-12.69901
-1.5529
4.100206
1.275408
-5.14542
-14.85139
-14.24499
-11.35846
-6.890183
-14.96855
-33.88694
-51.92357
-61.32888
-51.10194
-41.41836
-60.18156
-45.95152
-13.08096
-10.88133
-18.95109
-22.52304
-21.1587
1.689241
1.098501
-37.61414
-15.31982
10.18732
-13.54433
-8.428647
-0.3777933
8.610191
-0.6690108
-0.9757884
0.3635973
0.3979396
0.02727659
0.7841277
2.15842
-1.669525
-2.135595
0.1838254
-0.5444347
-80.95142
-0.0737644
1.476684
-0.8530736
-1.174949
1.229377
-0.501864
-0.6122257
-5.411293
-0.1897438
-0.2403144
-21.2326
-0.2653242
-0.2052324
0.08852743
-3.643941
-0.008370453
0.007260991
0.01116897
-4.671702
-20.77427
1.947131
0.9942207
3.362136
31.7897
-0.924758
-0.0005878887
-3.034202
-3.185271
-0.4358845
-0.2586572
-0.06033353
-8.681497
0.1077596
0.01410007
20.70767
-5.902146
0.08486656
-11.0555
-15.68716
-0.5945336
-0.00287783
-15.48651
0.4216131
-2.443031
1.477405
-33.99015
-0.02624807
-0.4581793
-0.1004362
0.1434529
-0.007687264
16.64006
-21.05804
21.28621
-0.08210637
3.76315
-1.791989
-0.06128376
0.188425
-15.7502
0.02300824
2.683627
0.03978705
-10.96255
2.106132
0.07597181
-0.3650054
-57.11874
-0.01035587
-17.89535
21.83798
-0.524165
0.02876658
0.6856627
0.6363558
-20.27354
5.593701
-55.48411
1.392694
-0.682609
-0.4127315
0.0848792
-87.50214
-0.009290734
-18.99959
-0.004279259
0.2419106
-5.1536
-39.74711
-0.04542091
1.2661
1.795364
6.986717
-23.9091
-0.002207555
0.01740941
-0.1418368
19.92961
0.03949339
-1.142904
0.1262416
-0.009491595
-0.04058014
-0.04058655
-2.9625
1.012121
-48.69517
2.298619
0.9780179
0.05043462
-0.1796207
0.13858
1.365345
-3.053305
-19.48803
0.03872982
4.758928
-0.4626856
0.0266887
-44.04221
0.7309576
-64.20023
1.188624
-0.01243555
-0.2104107
-0.9606434
-45.05416
-0.06609316
0.2546533
0.04164444
-21.14577
-25.31207
-0.1461327
-11.528
-56.05676
-0.1793485
0.06087653
0.1549945
-24.40198
0.2694788
-21.91648
-5.957296
-1.06653
1.424941
-63.04968
-20.1093
1.733913
-34.7411
-0.02362921
-4.257616
15.28298
3.109619
-49.89619
-5.192529
1.730322
1.650762
-0.4145493
-66.63064
-0.009031929
14.57115
0.2079174
-0.1493373
-0.1679054
3.758052
-45.35481
-1.812484
-0.0625213
-12.78048
0.254908
0.4639994
-0.239698
-9.478166
-0.9330029
0.0001018172
1.175292
-0.113023
0.6913024
-4.905398
-31.65317
-0.6011689
-0.5064455
1.410547
-35.6305
-13.40563
-1.524313
-6.21996
-0.2835044
-7.674394
-0.01370124
0.6028181
-0.116138
-29.90288
-2.410332
0.06264104
-8.794304
-9.733897
-0.3692775
3.578451
0.1859545
0.3342857
-33.48433
2.363859
-1.421745
-1.921519
-1.048642
-0.9668826
7.467333
0.01179726
17.13427
1.488141
-30.75486
2.019986
-0.01551532
-69.38707
-0.05079296
24.72184
-0.8952005
2.193265
0.5759681
1.210615
0.09450595
-0.02034421
-7.660992
0.2572954
-49.70915
-0.6583333
-46.91419
0.02364321
0.8624629
-29.61741
1.13244
-0.3923084
-0.4199479
2.54673
-23.32647
1.345117
0.03860404
-32.41561
-3.11696
-6.367668
0.02073153
-2.951781
-0.09196197
0.03346514
1.685517
1.545848
-0.04638787
13.10586
-24.10909
0.0629187
0.1522416
11.80272
0.18535
-0.2062018
2.747834
0.9658095
-30.44052
-50.56846
0.2946657
-0.9011343
1.087022
-0.2154832
-0.02203621
0.9594918
0.4122176
34.8081
0.5546793
1.338744
-0.05480598
0.4668669
-0.0153887
0.007945918
-1.02993
-40.45294
-0.0009311407
-13.49149
-0.003830273
2.450068
0.4478497
-40.81947
-0.1778378
-0.01395891
-40.71704
0.2259528
-0.01982441
-0.05445772
-0.5548641
0.5351119
-1.188459
1.260815
-0.6968655
-0.1352407
-7.757714
0.1841687
-11.32325
33.31515
-54.49491
-66.0285
-71.10338
-0.05138398
-0.03179218
-0.6453914
-0.02314909
0.001850176
-0.04999989
-0.1716288
0.001125699
-0.5593718
-8.294247
17.6589
-0.002723123
-6.518563
-47.37797
-0.533244
1.203233
-0.273438
-0.01993926
-3.482724
-0.01645041
-49.78861
-0.06486571
1.142611
-1.070335
-11.81549
4.264854
-67.07964
0.416256
-9.688844
0.007494721
0.009741547
-0.03784789
12.17953
0.1187799
0.1541076
-57.91833
-52.84804
-0.03296171
0.4021347
2.104469
-2.052945
-3.011606
-0.01569166
1.761913
-0.4119185
1.403918
0.9431506
0.7578289
-0.1345519
0.6633844
-2.266446
11.41724
-36.27374
-0.413625
1.43143
1.249864
0.1848262
-0.204735
2.267317
0.2907965
1.134005
0.9438806
-0.01235373
-14.53363
-0.006601252
-2.011783
-3.577736
36.68267
1.726553
-0.04903147
-0.7942084
0.6686612
2.376758
-53.75785
-0.009425918
-0.2109764
1.207316
-3.559387
0.6532933
-0.4226756
1.50261
-0.6413523
-26.64582
-0.02046711
-0.04847724
-1.205831
-40.1987
-52.02595
1.161527
2.490535
0.2106265
0.1180809
-0.03775524
-0.01033074
1.363497
-0.06544565
2.298716
-11.48817
0.1032528
-14.60787
-1.148343
-0.07723701
3.250174
-0.1602829
0.406662
-23.89219
0.07248032
0.3579756
-107.1249
-0.8178423
-34.51435
-0.1564645
-0.05982671
0.306432
3.119446
1.463045
-0.0600063
-4.622314
-0.08154115
-0.4386212
-0.08970463
-0.03848937
-2.916445
-0.2096734
-3.61162
0.6411699
-0.004826137
-0.009372006
-0.05118523
0.1548975
-0.6247118
-44.63476
2.142931
-10.97159
-0.2879232
-0.03648358
0.0031368
4.101787
0.5715492
-20.43165
1.773487
-39.79396
-0.7030272
-0.3132925
1.961658
-0.1101032
25.67703
-0.1513649
2.777054
-0.9126364
-9.022112
0.03727318
0.3664245
7.02212
-0.03273483
-8.863976
-4.50259
-39.33571
-0.01524039
0.4853821
-4.979558
-18.93549
0.666816
-0.2436969
-7.02601
-0.4216866
0.01519015
15.45682
0.00512804
0.8720754
-0.1640791
-22.72145
-1.838305
-0.007709464
-17.32541
-0.06308978
0.3467678
3.592621
-0.5255705
3.260831
-0.7425518
-0.3190334
0.01891361
-3.864169
2.099374
0.5568352
-0.3268952
-14.78769
-3.459562
-0.2365951
-20.67753
1.748535
13.26319
-1.252214
1.182522
0.2539342
2.083387
-0.1253489
-0.01910725
0.2409025
-0.04035468
-0.1330265
-5.384381
-0.04488101
-2.209967
0.6961528
-0.04290032
5.256592
0.06054683
0.03669154
-25.72835
-3.251635
-20.4628
0.04170272
3.636145
4.140157
3.07728
0.03114248
1.024514
0.09733286
4.299273
0.7253372
0.7894103
2.370021
-57.64529
2.065121
3.565664
-0.0467695
0.006463733
7.679665
0.4382098
6.081889
-0.6232517
-2.397715
5.051843
-0.03246552
-0.08262229
-4.419076
14.98615
-6.586982
0.02758539
2.404652
0.3742846
0.9031283
0.04023096
0.493429
0.2900967
5.649717
29.75368
-0.02926079
0.5171597
3.167633
-3.902499
-62.54999
0.104211
2.314448
-2.46498
2.067246
-0.3750795
-0.1100398
-3.332173
-0.1583799
5.229259
-0.02214142
1.383423
-21.97531
1.655447
0.06465649
-79.56084
-3.079082
0.2418691
-18.16886
2.149863
-0.0002759926
0.579917
0.0438017
-0.09303408
-61.33884
0.2980879
0.7505669
0.5637416
-4.971392
-0.004836966
-0.05933379
2.3393
-15.89749
-8.819437
-0.1796332
-22.82829
-6.884021
4.523245
-0.1125365
-54.86191
0.3537855
7.940961
-9.709923
0.02275777
-1.587047
4.90784
3.199268
2.275372
-0.05142256
-0.08428301
-0.004143235
-2.568593
17.01416
2.332612
-0.004925288
-0.1897544
-1.495291
-14.5552
-11.5907
-13.59859
-14.66831
-33.37528
-7.507193
-10.32782
-0.3904877
-0.05293186
0.8289846
0.548677
-0.07165653
0.08928379
-9.19127
-0.1473944
1.131438
-1.227009
-18.73069
-1.176247
24.50388
3.518525
-31.29612
-0.0106465
7.527079
6.576758
-2.020364
-24.42219
0.1131009
0.5656808
-8.9938
-0.6003403
-0.2443692
0.7335287
3.361524
-0.09002175
0.06530164
-14.70849
1.295632
1.406574
-3.392217
0.3942164
0.1173708
-83.76075
-1.21252
0.248284
2.436597
-56.50334
-0.05070683
0.4606168
6.315819
13.55397
9.590219
1.76173
-16.76971
0.6628027
-0.03352966
-0.2534368
-1.948356
2.327885
0.5635651
-22.69574
-0.01682595
-17.46124
-0.07817759
-0.3856034
-2.836156
-28.44298
1.811743
-0.1082201
-0.6388638
-4.230599
-10.91144
-1.604269
-3.725339
3.893503
-8.080235
1.120347
0.4178652
-22.91985
-39.10241
1.196911
0.7971328
-0.2094038
0.1173369
-4.441859
0.3896662
0.5900044
-40.35387
-0.2223449
-0.01580863
-0.1712179
0.06289867
0.1217038
0.479217
-0.1475973
-0.8168295
-0.197631
-26.32087
0.628098
0.4707247
0.07606135
0.00998897
0.2514409
-0.4632651
-0.2202713
1.698325
-2.299978
3.094023
-50.71226
-0.009558317
-0.01308062
0.008926526
0.14348
-0.07484882
3.174688
-0.1121026
-52.27105
2.010877
2.800773
6.984425
-0.0502643
-3.556801
-6.852725
-16.7551
0.007407275
-44.78868
0.7884471
-9.868155
-18.10585
-4.779844
-3.394012
-1.337922
1.374395
12.6636
1.729328
2.469339
-61.98626
-8.675324
-0.1467696
0.382083
-9.90789
21.82021
13.44635
0.06406649
1.689977
0.04275911
-0.1896817
0.02547007
3.885082
1.129488
2.41714
-0.6274157
0.3875893
-2.138841
4.992616
0.353664
0.07310993
-0.05169982
0.9145236
0.07590842
-0.2096738
2.186588
29.84616
-0.05583813
0.06554549
1.138956
-0.5311881
0.02707711
-0.09998078
-41.82484
0.4120689
-36.52323
-3.427802
0.3890771
-0.03634218
0.09809777
-6.420167
0.8613372
-0.008710956
0.1576658
0.4448806
-7.709856
-53.78075
-0.2611657
-0.5011978
-0.8896672
-0.1375057
-0.2783866
1.582298
-13.63729
-2.420407
14.1083
-0.8382083
-0.1594689
0.3490994
0.08455042
1.944332
-0.8394063
-0.02619637
-0.5634466
-24.37311
-0.5493539
8.038201
-23.86522
-0.5730437
-0.009978456
1.529222
1.326907
-0.226825
0.5583013
-1.377964
-0.7894974
-0.4613298
2.30539
1.153961
1.586821
3.157761
0.3759244
-0.01506039
29.54065
-0.2194879
-1.279308
-0.06651688
-70.84876
0.5787569
0.5394948
1.285951
-0.4747448
31.72899
0.4030024
-0.6190469
-4.523011
0.7199622
-0.01461167
-0.4781122
0.3015521
0.3574864
-20.12725
-14.42701
0.2429815
-1.948036
-36.82868
0.01726609
-0.007849252
0.1987123
-10.73263
4.583895
28.65822
-0.02191982
-0.1297578
-0.07390515
-0.004782823
0.0006989173
9.061169
-0.878893
0.3968876
0.01713268
0.1132771
0.06960138
0.07413102
-0.0290868
-6.823725
-30.56364
-28.01371
2.523185
-48.29841
0.021247
3.696491
-0.08438577
2.995091
-9.074251
-0.01636475
-0.4258556
9.133037
-16.05667
4.735521
1.214982
0.6789626
-7.05603
26.69837
-21.45851
-0.0310404
-1.351715
-23.23641
-0.03399813
0.03152839
2.301664
1.010037
0.4545318
-31.925
-3.470908
1.860781
-1.069681
-0.003207087
0.02702364
-35.94718
-18.73653
-47.54254
2.359429
-42.13564
2.199755
0.5152236
-17.50464
0.0294253
-0.7695567
-28.41584
-0.001877659
0.1283989
0.6973266
-1.948173
0.01327306
-40.5393
-18.13067
-2.588526
15.51524
0.873757
-0.001609562
-14.10353
15.56485
-48.63376
0.02486413
0.9790924
-1.896115
-0.01503301
-0.0005312033
-42.12778
-16.98628
-0.5686808
-0.6911479
-58.45621
-68.03639
-3.408726
1.857524
2.213235
0.03784904
-0.1384318
2.458594
0.3108151
0.08973034
-0.2570229
-0.08212142
0.06502414
3.129636
0.4154172
-13.74871
1.050727
1.635945
-47.23131
1.448107
-0.1678118
-1.803567
-26.61319
-9.649656
-1.911337
-1.969047
-12.87841
-38.88996
33.62775
46.71491
1.881195
-1.257311
-0.2541821
5.343069
1.424388
0.01434272
10.71202
-32.30087
1.636301
-0.5224819
-0.280527
1.965855
-0.4864684
-6.074214
-1.067683
-23.15445
-61.1252
2.959606
1.251381
-1.987538
1.900837
1.486622
-35.59609
0.1427959
0.4664765
1.536244
-0.4586031
-0.4712602
-1.192633
-39.78434
-20.57491
1.465225
1.035701
-0.0917524
1.774975
-0.01671981
1.583741
0.01964012
-46.31165
0.7911391
-40.98513
-27.42628
0.3022884
-0.1223312
-39.93494
-79.27468
-0.006511124
2.625549
1.639848
0.2406878
-0.6513135
1.199086
0.04571065
-0.5298291
-0.3161595
-0.207819
0.2878739
-1.007135
0.4940534
-0.1711442
-0.13838
0.09696625
0.07875034
-0.3213279
-0.8581319
0.1548644
-0.2001028
-6.070643
-0.7203949
0.05963037
3.244933
-0.005295497
0.9353431
-23.59306
0.01154117
-0.09153673
-30.83842
-20.84553
-0.0592108
-0.4667917
0.01382785
-0.1199251
-28.19432
-11.25261
5.635754
-32.01744
22.66351
-0.2216848
2.958107
-1.486268
-19.99093
0.05350323
3.17158
-78.45006
-0.2840267
0.9403264
-11.42115
2.245266
4.900881
-0.1596795
-1.770411
-5.914876
-0.06375269
-58.70482
1.018742
-2.869724
33.99216
-11.29423
-6.325477
0.4811248
1.615527
1.814252
7.607235
0.947342
7.21723
-0.9229737
-0.7149478
-8.102124
-0.3583322
-1.908329
0.3710537
-19.13289
-0.3069724
-75.6255
7.609734
-1.086791
16.07257
-0.4659856
28.55979
-0.06896023
3.7924
-0.0866057
-1.067618
14.13305
-7.924408
-74.46451
-0.2108072
0.145113
0.04501086
0.1198605
0.9384865
-9.192122
-5.562592
0.05037205
-33.17697
1.193688
15.78946
-76.24777
2.050436
-72.61232
-15.23092
-3.622069
-38.96858
36.85837
0.4333426
-0.5661335
-39.01886
-0.8389529
0.02393076
-1.410871
-0.03731541
-18.86932
-79.60021
-27.5309
0.9631141
-1.184001
2.383859
0.2728818
-0.1299239
1.012612
6.269122
2.757774
-0.06740439
0.09610242
0.2586133
-0.01806797
-19.4461
-0.03313181
-0.8837966
-0.3276214
-43.11242
0.005750314
2.003869
0.1018553
-0.5419219
-39.34135
1.669071
0.01558527
1.167748
0.07362942
-0.09539509
-1.499903
0.2651352
0.8276385
-60.8534
22.56989
-1.711091
0.1039492
2.859721
-0.8552168
1.58828
0.8064529
0.01859169
0.8022689
-0.09865452
-10.34195
0.2235737
-14.6005
1.498741
2.223077
1.115698
2.170702
-0.06490637
1.015747
-7.940514
-4.544812
-62.03523
-13.48132
0.05552054
-0.05054636
0.2208875
0.009003382
1.080393
-35.34021
0.8401379
-0.05229536
-0.06271391
-8.34455
0.1345797
-0.01546498
2.534599
-56.54337
-0.05765095
0.002447505
-0.201404
-65.45255
-0.3626914
-34.9896
-0.2993145
-0.2015833
0.05420275
0.2806289
2.200387
-35.0329
-7.546518
0.08997318
0.1621899
-8.174421
-0.06205425
2.391007
2.140683
2.116209
-0.4726722
-0.08538043
0.2969121
-58.51373
-1.500922
-0.2582364
1.086158
2.011782
-0.209185
0.6718978
-0.4498074
1.35864
-8.978898
0.8249415
3.37493
8.361562
2.334891
-12.85058
-0.3338428
-0.1826932
-0.8090689
-24.45112
-0.4825885
-0.7717295
0.04057874
-16.99651
-32.10594
-43.16049
-0.2038335
-29.01619
0.778423
-7.506028
-2.315588
-0.06450732
15.78337
-5.176445
-20.60807
-78.20959
0.002356066
-0.0638914
-1.312178
-0.01409547
-0.06870842
-0.02120405
-8.391979
-0.0178767
0.05625853
-14.38787
0.5664468
-0.5104307
-25.99672
-0.8561568
-0.6032213
1.36768
-0.0085045
-0.6277026
0.8255401
-15.38575
-0.4406055
1.866514
0.08480287
-0.04846483
-13.58312
-0.020863
-1.313453
-0.2221721
-0.3036068
-0.05539041
-15.85586
-4.713454
-5.978275
-3.886706
-0.02965956
10.91331
-56.7082
-16.93016
0.5773176
0.08086668
18.30745
-2.017451
0.3849549
0.1433125
-1.55387
-0.04201906
-46.30813
-30.2497
-18.73041
10.26421
7.881843
-0.06052077
-49.56437
-47.64152
-72.47534
2.057989
-2.282374
-1.024764
-3.156719
0.05962524
-0.02836173
0.1663888
-0.04058783
0.5273372
1.044849
0.6754301
0.1705001
-27.80142
0.2495104
0.4277172
0.02808668
-19.4028
19.1241
0.0231836
-21.72184
-37.2671
-3.288708
5.277893
-6.983862
-5.944483
-12.30476
-64.44062
-0.05398556
-68.02873
1.16095
-46.99692
-19.64002
-0.009053216
-5.023231
-15.81692
0.5752776
13.8524
0.1659536
0.03270832
2.13074
-0.0786358
-0.06015582
0.03734148
0.1430613
-0.134513
2.548949
-36.99203
0.0105848
1.18211
-1.945088
0.7560775
0.7326059
-15.63602
-0.1825138
-39.57311
-0.4093651
1.204028
19.9701
-0.03270255
1.070545
-26.3686
-1.018784
-30.96822
-6.466647
0.02422124
-0.4451155
-0.4700346
2.462843
-0.03805441
0.07376782
-3.055082
0.09158502
-0.3226794
-0.08341911
21.99938
2.230009
-15.19989
2.41765
-2.014027
-0.2385782
-82.86036
-0.3128104
0.4288136
2.739988
1.863752
-0.304991
-56.34033
-60.63563
-36.29911
8.923459e-07
-0.1089829
17.91659
1.023226
1.155144
1.386789
1.174338
-8.086378
-36.53003
1.342531
-67.76504
0.535327
-2.44113
0.1082543
1.548921
9.257749
0.06402239
-0.3178549
0.5534522
-0.06072829
-0.2807984
14.76883
-0.6737665
-6.09781
-0.1104766
-2.714389
0.03456493
2.666017
-14.09881
-0.3041641
-0.1720379
-11.38444
0.8939742
-0.0245065
-35.03035
-1.951895
0.005315866
-5.200049
-3.570147
0.3549341
0.3636418
1.488165
0.000379811
-3.192091
-74.37572
25.96468
-6.404119
0.01429197
0.02038157
-30.07326
-0.07730392
0.8706002
-4.479514
2.431768
0.2659755
0.7489802
-1.068875
-35.30991
-0.327044
20.43467
34.69852
1.566485
-2.920592
-2.446018
0.1032442
1.087727
-0.02195152
32.50501
-54.178
-0.08035396
1.853632
1.05286
-16.14685
-0.4501301
-0.0114718
-3.454758
0.7554815
1.124998
-25.92066
0.4034996
1.246335
-0.6932627
-14.88364
-12.86789
-2.132523
0.04817765
-80.34609
25.54868
-32.21967
0.2497999
-8.540983
-3.47663
0.1343366
1.661516
31.29879
2.344359
-0.02365451
-5.447692
-0.2783759
0.01981643
-35.17163
0.5101343
-0.01749422
0.3207885
0.4780008
18.92919
-0.2421933
2.943833
-3.250468
0.009926116
-1.512934
18.93031
2.842431
6.100682
-53.45266
-40.36006
0.1576265
0.04925913
-58.15805
-0.2746999
-36.28552
-0.0755469
-0.01293379
0.7585923
0.05859038
-9.197137
-16.44272
-0.3564272
-2.38791
-4.750564
0.007183713
0.3675495
-1.367671
-57.73167
-16.88902
-0.2228041
3.01669
0.01434923
-0.07196046
0.128128
0.1733749
1.490185
0.05309605
-19.07048
-27.59181
-1.730483
-1.182895
-3.53602
1.327435
1.528375
-10.19937
3.354995
1.815048
-0.7609484
34.75698
-0.04960592
-0.3083471
-0.3371081
-0.1373678
-5.625051
-23.8715
-36.83782
13.31322
1.260448
0.6259608
1.023835
0.4432501
0.04379752
0.8208285
0.1052844
2.384336
0.4696283
0.5059278
0.01117033
0.3477731
11.64339
7.846525
-0.04646005
-0.1477313
-1.210588
-0.8748426
-0.1703103
-9.479936
9.612008
-49.75544
-39.88622
0.3659805
-3.604644
-76.73251
41.80997
-92.05333
1.327433
1.364859
4.111351
-0.9963773
8.604343
-22.04703
0.01686925
3.584242
0.1307312
2.691564
-0.4017966
0.01340049
-0.09072375
-63.07655
1.126638
0.02621687
-0.4666802
0.01724899
-43.40173
-45.55518
-20.20351
-0.3545898
14.54681
-1.285871
0.8555331
1.035401
0.5567391
-11.69631
0.282713
3.075435
31.15324
-3.192967
-0.661533
-0.789291
25.95805
4.260319
-1.904452
2.73008
-0.04857743
0.4092121
-0.09807036
-71.31781
0.1008098
-75.96618
1.80715
-0.7838795
44.1759
-0.8852281
-0.09389602
-0.764877