/*--------------------------------*- C++ -*----------------------------------*\
| =========                 |                                                 |
| \\      /  F ield         | OpenFOAM: The Open Source CFD Toolbox           |
|  \\    /   O peration     | Version:  2406                                  |
|   \\  /    A nd           | Website:  www.openfoam.com                      |
|    \\/     M anipulation  |                                                 |
\*---------------------------------------------------------------------------*/
FoamFile
{
    version     2.0;
    format      ascii;
    arch        "LSB;label=32;scalar=64";
    class       volScalarField;
    location    "0.06";
    object      p;
}
// * * * * * * * * * * * * * * * * * * * * * * * * * * * * * * * * * * * * * //

dimensions      [0 2 -2 0 0 0 0];

internalField   nonuniform List<scalar> 
4531
(
-0.000645344
-3.781477e-05
-0.0001553818
-0.0001129213
-7.618433e-05
-0.0001028552
-5.266681e-05
-7.134829e-05
-6.773598e-05
-4.595605e-05
-6.583895e-05
-4.663524e-05
-5.786894e-05
-1.828948e-05
-3.093387e-05
-2.014479e-05
-1.999305e-05
-1.690883e-05
3.543455e-06
-1.558132e-05
2.373185e-05
1.148596e-05
0.0001081641
-0.0001622581
0.0009992582
-0.001569404
-0.0003027093
-0.0004983574
-0.0003992398
-0.0003732783
-0.0003485462
-0.0003327714
-0.0003160804
-0.0002952202
-0.000292611
-0.0002804652
-0.0002738548
-0.0002659865
-0.0002622362
-0.000255958
-0.0002519242
-0.0002487827
-0.0002455246
-0.0002434781
-0.0002414969
-0.0002388433
-0.0002385204
-0.0002363555
-0.0002361088
-0.0002356311
-0.0002360062
-0.0002364886
-0.0002375993
-0.0002387832
-0.0002410253
-0.0002424468
-0.0002463483
-0.0002486903
-0.0002515228
-0.0002573211
-0.0002602683
-0.0002669711
-0.0002736946
-0.0002836332
-0.0002909113
-0.0003041142
-0.0003129033
-0.0003372058
-0.0003442766
-0.0003827344
-0.0003859165
-0.0005224009
-0.0002708042
-0.001590746
0.001000286
-0.0001639233
0.0001236383
9.108554e-06
3.21261e-05
-9.830706e-06
5.446088e-06
-2.043995e-05
-8.827268e-06
-3.521505e-05
-3.692853e-05
-3.206094e-05
-5.516886e-05
-3.364802e-05
-5.725459e-05
-5.056103e-05
-7.80791e-05
-5.923574e-05
-7.954894e-05
-6.376607e-05
-9.990138e-05
-0.000110552
-0.0001830759
3.452283e-06
-0.0006352792
0.0007844241
0.0002004676
0.0003048037
0.0002460175
0.0002469015
0.0002325915
0.0002194271
0.0002276734
0.0002148395
0.0001984995
0.0002249777
0.0002168944
0.0002114194
0.0001935525
0.0002151597
0.0002184696
0.0002110354
0.0002100126
0.0002114388
0.0002171295
0.0002062932
0.0002226642
0.0002115944
0.000228524
0.0002258814
0.0002316881
0.0002364935
0.000242452
0.000243762
0.000261025
0.0002664439
0.000283714
0.000306731
0.0003141939
0.0004473599
0.0004565327
0.0003146594
0.0003094576
0.0002859139
0.000268795
0.0002633892
0.000246755
0.0002449678
0.0002393192
0.0002344512
0.0002286506
0.0002312055
0.000213894
0.0002251573
0.0002083408
0.000218272
0.0002133234
0.0002094484
0.0002107471
0.000217544
0.0002143537
0.0001928723
0.0002108573
0.0002162122
0.0002239248
0.0001972552
0.0002132289
0.000225892
0.0002171901
0.0002339063
0.0002463111
0.0002520871
0.0003380961
0.0001530971
0.0008220991
0.0004607711
0.0003203085
0.0003106797
0.0002874739
0.000269506
0.0002639231
0.0002475676
0.0002451579
0.000239533
0.0002346471
0.0002284068
0.0002312984
0.0002141257
0.000225035
0.0002086253
0.0002177747
0.0002133737
0.000209533
0.0002104959
0.000217227
0.0002141319
0.0001929376
0.000210819
0.0002155166
0.0002230764
0.0001973536
0.0002127367
0.0002251016
0.0002170347
0.0002333057
0.0002454319
0.0002512764
0.000334698
0.0001547408
0.000786654
0.0007491614
0.0002008096
0.0003025571
0.0002448634
0.0002461903
0.0002318356
0.0002191792
0.0002268331
0.0002143286
0.0001985861
0.0002241248
0.0002162019
0.0002113847
0.0001936132
0.0002149178
0.0002181187
0.0002107477
0.0002100468
0.0002115012
0.0002166549
0.0002065892
0.0002225691
0.0002118366
0.0002286293
0.0002256575
0.0002318986
0.0002367241
0.000242647
0.0002446006
0.0002615804
0.0002671614
0.0002852711
0.0003080167
0.0003195658
0.0004521144
0.0009243347
-0.0001295968
0.00011709
1.085989e-05
3.152323e-05
-9.502183e-06
5.333454e-06
-2.030956e-05
-9.163691e-06
-3.484618e-05
-3.69108e-05
-3.171713e-05
-5.490715e-05
-3.363668e-05
-5.700706e-05
-5.039165e-05
-7.743702e-05
-5.873968e-05
-7.900645e-05
-6.383026e-05
-9.931824e-05
-0.0001086564
-0.0001805507
2.477951e-06
-0.0006020578
-0.001496908
-0.0003449137
-0.0004951468
-0.0004025502
-0.0003743728
-0.0003492916
-0.000333211
-0.0003166776
-0.0002957036
-0.0002927119
-0.0002806598
-0.0002740068
-0.0002660782
-0.0002622623
-0.0002560216
-0.0002519534
-0.0002487997
-0.0002455198
-0.0002434454
-0.0002414736
-0.0002388312
-0.0002384825
-0.0002363361
-0.0002360919
-0.000235617
-0.0002359925
-0.000236472
-0.0002375823
-0.0002387723
-0.0002410112
-0.0002424577
-0.0002463289
-0.0002486872
-0.0002515559
-0.0002573345
-0.0002603632
-0.0002671292
-0.0002738996
-0.0002838106
-0.0002911716
-0.0003044016
-0.0003134602
-0.0003375969
-0.0003452463
-0.0003834325
-0.0003899383
-0.0005179906
-0.0003138087
-0.001519904
-0.0006107809
-3.802413e-05
-0.0001533057
-0.0001118609
-7.572042e-05
-0.0001018123
-5.256992e-05
-7.0809e-05
-6.70585e-05
-4.602622e-05
-6.561496e-05
-4.630051e-05
-5.754123e-05
-1.830202e-05
-3.114598e-05
-1.991007e-05
-1.989244e-05
-1.687708e-05
2.899579e-06
-1.525359e-05
2.361748e-05
1.285211e-05
0.0001020139
-0.0001272576
0.0009240549
-0.0005686724
-3.715104e-05
-0.000149832
-0.0001105431
-7.48148e-05
-0.000100511
-5.227646e-05
-7.007004e-05
-6.62087e-05
-4.605039e-05
-6.534828e-05
-4.583114e-05
-5.721142e-05
-1.825449e-05
-3.144621e-05
-1.961326e-05
-1.979321e-05
-1.692239e-05
2.107413e-06
-1.501022e-05
2.339411e-05
1.414144e-05
9.579313e-05
-9.162081e-05
0.0008367044
-0.001409229
-0.0003888408
-0.0004925927
-0.0004062639
-0.0003756386
-0.000350119
-0.0003336826
-0.0003173577
-0.0002962412
-0.0002928264
-0.0002808683
-0.0002741731
-0.0002661701
-0.0002622803
-0.0002560836
-0.0002519766
-0.0002488126
-0.0002455032
-0.0002433961
-0.000241437
-0.0002388063
-0.0002384309
-0.0002363042
-0.0002360656
-0.0002355944
-0.0002359706
-0.0002364462
-0.0002375555
-0.0002387526
-0.0002409871
-0.0002424602
-0.0002462971
-0.0002486726
-0.0002515801
-0.0002573427
-0.0002604641
-0.0002673081
-0.00027413
-0.0002840066
-0.0002914556
-0.0003047204
-0.0003140728
-0.0003380408
-0.0003463151
-0.0003842774
-0.0003944069
-0.0005141617
-0.0003586595
-0.001434071
0.0008362338
-9.482134e-05
0.0001103822
1.25711e-05
3.071352e-05
-9.275521e-06
5.178225e-06
-2.024736e-05
-9.551912e-06
-3.447344e-05
-3.691062e-05
-3.128135e-05
-5.458251e-05
-3.354778e-05
-5.672272e-05
-5.009526e-05
-7.664483e-05
-5.804418e-05
-7.824343e-05
-6.376019e-05
-9.826026e-05
-0.00010653
-0.000176627
2.458055e-06
-0.0005612998
0.0007058983
0.0001999853
0.0002992181
0.0002430577
0.0002452894
0.0002307114
0.0002187369
0.0002257524
0.0002136104
0.0001985711
0.0002230327
0.0002153091
0.0002113128
0.0001935948
0.0002146004
0.0002176891
0.0002103674
0.0002100641
0.0002115632
0.0002160758
0.0002069068
0.0002224662
0.0002121002
0.000228751
0.0002253695
0.0002321547
0.0002369994
0.0002429261
0.000245614
0.0002622779
0.0002680736
0.0002871779
0.0003096076
0.0003262391
0.0004544519
0.0004624994
0.0003272666
0.000312206
0.0002893807
0.0002704094
0.0002645936
0.0002485481
0.0002454279
0.0002397869
0.0002348835
0.0002280921
0.0002314022
0.0002143736
0.0002248971
0.0002089247
0.0002171623
0.0002134223
0.0002096117
0.0002101652
0.0002168422
0.0002138415
0.0001929261
0.0002107433
0.0002146206
0.0002219905
0.0001973548
0.0002120443
0.000224086
0.0002167117
0.000232347
0.0002444132
0.0002496952
0.0003301118
0.0001553451
0.0007432297
0.0004599023
0.000334977
0.0003138524
0.000291468
0.0002714702
0.0002653432
0.0002496504
0.0002457902
0.0002400803
0.0002351407
0.0002277531
0.0002314641
0.0002146604
0.0002247497
0.0002092049
0.0002164814
0.0002134895
0.0002096595
0.0002097664
0.0002164625
0.0002135099
0.0001927884
0.0002105937
0.0002136823
0.0002208132
0.0001972026
0.0002111769
0.0002229312
0.0002162629
0.0002310855
0.0002432732
0.000247774
0.0003237295
0.0001570694
0.0006938316
0.0006569902
0.000200367
0.0002941052
0.0002409383
0.0002441505
0.0002293521
0.0002181528
0.0002245314
0.0002127115
0.0001983999
0.0002218475
0.0002143727
0.0002111653
0.000193448
0.0002142391
0.0002172591
0.0002099153
0.0002100469
0.0002116414
0.0002154322
0.0002072096
0.0002223561
0.0002124065
0.0002288344
0.0002250608
0.0002324339
0.0002373177
0.0002433004
0.000246753
0.0002630575
0.0002691466
0.0002892653
0.0003113235
0.0003336759
0.0004525416
0.0007396675
-6.133999e-05
0.0001027543
1.459588e-05
2.959761e-05
-9.145558e-06
4.957744e-06
-2.018108e-05
-9.993743e-06
-3.414258e-05
-3.691901e-05
-3.074164e-05
-5.428961e-05
-3.340707e-05
-5.631468e-05
-4.979762e-05
-7.57634e-05
-5.718749e-05
-7.734165e-05
-6.352928e-05
-9.664646e-05
-0.0001047994
-0.000170428
1.247672e-06
-0.000514847
-0.001308342
-0.0004320548
-0.0004896848
-0.0004104408
-0.0003769695
-0.0003509932
-0.0003342011
-0.0003180843
-0.0002967877
-0.0002929444
-0.0002810963
-0.0002743391
-0.0002662614
-0.0002622934
-0.0002561421
-0.0002519897
-0.0002488209
-0.0002454757
-0.0002433358
-0.0002413891
-0.0002387705
-0.0002383687
-0.0002362609
-0.0002360274
-0.000235563
-0.0002359393
-0.0002364111
-0.0002375183
-0.0002387244
-0.0002409534
-0.0002424535
-0.0002462578
-0.0002486479
-0.000251593
-0.0002573465
-0.0002605667
-0.0002674916
-0.0002743763
-0.0002842125
-0.00029176
-0.000305045
-0.000314726
-0.0003385033
-0.000347458
-0.0003851357
-0.0003993754
-0.0005098887
-0.0004028749
-0.00133502
-0.0005209402
-3.750487e-05
-0.0001444791
-0.0001093172
-7.358612e-05
-9.90077e-05
-5.179498e-05
-6.924213e-05
-6.522982e-05
-4.596886e-05
-6.505936e-05
-4.542618e-05
-5.686726e-05
-1.81603e-05
-3.169836e-05
-1.92779e-05
-1.974397e-05
-1.704118e-05
1.146805e-06
-1.483647e-05
2.293675e-05
1.575484e-05
8.877125e-05
-5.703016e-05
0.0007405649
-0.0004663855
-3.937955e-05
-0.0001368718
-0.000108362
-7.252211e-05
-9.690379e-05
-5.116481e-05
-6.862525e-05
-6.370978e-05
-4.554744e-05
-6.484967e-05
-4.553256e-05
-5.623672e-05
-1.829325e-05
-3.152148e-05
-1.874864e-05
-1.98044e-05
-1.742954e-05
-4.163862e-07
-1.448856e-05
2.195465e-05
1.81916e-05
8.095283e-05
-2.411395e-05
0.0006333811
-0.001191241
-0.0004733869
-0.0004866788
-0.000415268
-0.000378446
-0.0003519601
-0.0003348884
-0.0003188371
-0.0002973853
-0.0002930293
-0.0002813523
-0.0002745135
-0.0002663617
-0.0002623098
-0.0002562054
-0.000251992
-0.0002488245
-0.0002454383
-0.0002432654
-0.0002413298
-0.0002387302
-0.0002382912
-0.0002362027
-0.0002359738
-0.0002355198
-0.0002358973
-0.0002363617
-0.0002374661
-0.00023868
-0.0002409151
-0.0002424424
-0.0002462143
-0.0002486143
-0.0002515881
-0.0002573352
-0.0002606987
-0.0002676981
-0.0002746595
-0.0002844411
-0.0002921096
-0.0003053887
-0.0003154368
-0.0003389382
-0.0003487594
-0.0003859812
-0.0004050084
-0.0005050865
-0.0004452621
-0.001220056
0.0006333769
-3.054613e-05
9.383239e-05
1.747234e-05
2.7739e-05
-9.100998e-06
4.728165e-06
-1.964274e-05
-1.095694e-05
-3.376647e-05
-3.674242e-05
-2.970226e-05
-5.436511e-05
-3.327162e-05
-5.526831e-05
-5.002532e-05
-7.467487e-05
-5.579172e-05
-7.67409e-05
-6.329487e-05
-9.451386e-05
-0.0001035568
-0.000161544
-1.818984e-06
-0.0004617109
0.0006017604
0.0002028454
0.0002867079
0.0002384687
0.0002426613
0.0002278525
0.000217716
0.0002229479
0.0002115231
0.0001980395
0.0002207099
0.0002134465
0.0002109432
0.0001931415
0.0002138317
0.0002168308
0.0002093194
0.0002099975
0.0002117276
0.0002146594
0.0002075503
0.0002223348
0.0002129884
0.0002286821
0.0002246432
0.0002327302
0.0002377395
0.0002439176
0.0002482
0.0002637666
0.0002703676
0.0002914399
0.0003134634
0.0003415618
0.0004454996
0.000452077
0.0003431193
0.0003159153
0.0002936428
0.000272675
0.0002660182
0.0002510553
0.0002463922
0.0002404724
0.0002354125
0.0002273018
0.0002312867
0.0002152189
0.0002246893
0.0002095217
0.0002156788
0.0002135705
0.0002096712
0.0002092197
0.0002160879
0.0002131324
0.0001924928
0.0002103715
0.0002127564
0.0002196865
0.0001968656
0.0002100282
0.0002214047
0.0002159817
0.0002296559
0.0002417033
0.0002457043
0.000314884
0.0001607156
0.0006372437
0.0004386633
0.000350621
0.0003188652
0.0002957941
0.0002740054
0.0002663305
0.0002528067
0.0002474162
0.0002410779
0.0002357122
0.0002266306
0.0002306706
0.0002162893
0.000224965
0.0002100663
0.0002146864
0.0002135089
0.0002096076
0.0002084337
0.0002158893
0.0002127558
0.0001918349
0.00021011
0.0002120682
0.0002188164
0.0001961706
0.0002084633
0.0002193294
0.0002161823
0.0002281521
0.0002394874
0.0002437416
0.0003036001
0.0001662143
0.0005734609
0.0005387996
0.0002074914
0.0002768089
0.0002354616
0.0002408021
0.0002263286
0.000217726
0.0002208457
0.0002099093
0.0001973145
0.0002198252
0.0002127544
0.0002106792
0.0001924724
0.0002134301
0.0002165754
0.0002084998
0.0002098829
0.0002116629
0.0002136763
0.0002081172
0.000222644
0.000214081
0.0002280924
0.0002240072
0.0002330562
0.0002383804
0.000244961
0.0002499953
0.0002641191
0.0002717187
0.0002935923
0.0003164995
0.0003488444
0.0004329632
0.0005166154
-5.614837e-06
8.369936e-05
2.171892e-05
2.479037e-05
-9.124589e-06
4.519887e-06
-1.768596e-05
-1.312267e-05
-3.310341e-05
-3.61687e-05
-2.767839e-05
-5.501859e-05
-3.316524e-05
-5.281325e-05
-5.153136e-05
-7.32874e-05
-5.34906e-05
-7.695676e-05
-6.329065e-05
-9.194541e-05
-0.0001031219
-0.0001497772
-6.688779e-06
-0.0004018054
-0.001053217
-0.0005090763
-0.0004843275
-0.0004207909
-0.0003801897
-0.0003530805
-0.0003358895
-0.0003195761
-0.0002981387
-0.0002930313
-0.0002816317
-0.000274712
-0.0002664794
-0.0002623403
-0.0002562811
-0.0002519788
-0.0002488264
-0.00024539
-0.0002431808
-0.0002412608
-0.0002386897
-0.0002381899
-0.0002361189
-0.000235897
-0.0002354583
-0.000235844
-0.0002362891
-0.0002373871
-0.0002386045
-0.0002408765
-0.0002424329
-0.0002461736
-0.0002485685
-0.000251555
-0.0002572965
-0.0002609068
-0.0002679636
-0.0002750192
-0.000284717
-0.0002925289
-0.0003057742
-0.0003162171
-0.0003393154
-0.0003503737
-0.0003867996
-0.0004114327
-0.0005001927
-0.0004814751
-0.001084689
-0.0004041391
-4.213107e-05
-0.0001266106
-0.0001078218
-7.21052e-05
-9.377774e-05
-5.04355e-05
-6.832229e-05
-6.119477e-05
-4.452648e-05
-6.487804e-05
-4.656828e-05
-5.496614e-05
-1.892397e-05
-3.04801e-05
-1.776634e-05
-2.00511e-05
-1.835218e-05
-2.940057e-06
-1.360631e-05
2.02672e-05
2.165155e-05
7.250911e-05
4.56591e-06
0.0005139947
-0.0003306745
-4.849573e-05
-0.0001122861
-0.0001059896
-6.819104e-05
-9.213504e-05
-4.880204e-05
-6.523024e-05
-6.046695e-05
-4.41375e-05
-6.459405e-05
-4.567549e-05
-5.479478e-05
-1.7693e-05
-3.092217e-05
-1.708902e-05
-2.031236e-05
-1.870711e-05
-3.417513e-06
-1.422021e-05
2.042444e-05
2.151479e-05
6.04275e-05
2.402681e-05
0.0003768429
-0.0008782647
-0.0005330908
-0.0004801457
-0.0004247566
-0.0003822117
-0.0003540433
-0.0003365538
-0.000320664
-0.0002988874
-0.0002931621
-0.0002819534
-0.0002748995
-0.0002665458
-0.0002623358
-0.00025631
-0.0002519076
-0.0002488195
-0.0002452869
-0.0002430369
-0.0002411645
-0.0002385634
-0.0002380583
-0.0002359771
-0.0002357652
-0.0002353564
-0.0002357538
-0.0002361845
-0.000237258
-0.0002385065
-0.0002407659
-0.0002423641
-0.0002461176
-0.0002484547
-0.0002514995
-0.0002573094
-0.0002610402
-0.0002682147
-0.0002754268
-0.0002850357
-0.0002929191
-0.0003061431
-0.0003171213
-0.0003401345
-0.0003519461
-0.0003881257
-0.0004171269
-0.0004951357
-0.0005035303
-0.000910961
0.000375772
1.36648e-05
7.277659e-05
2.32557e-05
2.406117e-05
-9.745108e-06
3.669901e-06
-1.631609e-05
-1.359456e-05
-3.252715e-05
-3.658332e-05
-2.719665e-05
-5.344767e-05
-3.244079e-05
-5.154281e-05
-5.120291e-05
-7.249326e-05
-5.287813e-05
-7.449797e-05
-6.190518e-05
-8.845608e-05
-0.0001033383
-0.0001372256
-1.156492e-05
-0.000333153
0.0004596559
0.0002124105
0.0002641195
0.0002318214
0.0002382186
0.0002241042
0.0002155509
0.0002199894
0.0002081532
0.0001953361
0.0002183628
0.0002127638
0.0002100884
0.0001906031
0.0002131918
0.0002172258
0.0002078149
0.0002094054
0.0002110962
0.0002128193
0.000208745
0.0002231014
0.0002140448
0.0002284381
0.0002237814
0.0002335147
0.0002391682
0.0002457239
0.0002505227
0.0002652321
0.0002735419
0.0002962149
0.0003198505
0.0003525214
0.0004183899
0.0004231234
0.000354437
0.0003221063
0.0002984013
0.000275798
0.0002673888
0.0002533118
0.0002481523
0.0002418261
0.0002361434
0.0002263725
0.0002309903
0.0002162368
0.0002254098
0.0002106507
0.0002137557
0.0002129407
0.0002092307
0.0002078058
0.0002166237
0.0002125459
0.0001899816
0.0002095319
0.0002120881
0.0002173654
0.0001942214
0.0002067442
0.0002184803
0.0002142543
0.0002257486
0.0002363849
0.0002421769
0.0002912494
0.0001713184
0.0005031132
0.0004175341
0.0003486789
0.0003208277
0.0003036628
0.0002788289
0.0002763963
0.0002472917
0.000245115
0.0002416212
0.0002368004
0.0002293675
0.0002383287
0.000207555
0.0002234428
0.0002082096
0.0002145892
0.0002121215
0.0002080198
0.0002092839
0.0002190594
0.0002124906
0.0001857574
0.0002070368
0.0002123984
0.0002109043
0.0001890462
0.0002063492
0.0002258045
0.0001983355
0.000219058
0.0002316399
0.0002392417
0.0002785866
0.0001678717
0.000424568
0.0003493187
0.0002108458
0.0002471673
0.0002275179
0.000232761
0.0002179389
0.0001994257
0.000227121
0.0002078049
0.0001901667
0.0002119162
0.0002130551
0.0002075466
0.0001863223
0.0002130294
0.0002194737
0.0002089714
0.0002078191
0.0002103222
0.0002141835
0.0002064616
0.0002211805
0.0002054412
0.0002358268
0.0002268225
0.0002342047
0.0002390042
0.0002427311
0.0002444771
0.0002743427
0.0002766285
0.0003015443
0.000318729
0.0003468072
0.0004138472
0.0001771855
3.872956e-05
6.209678e-05
1.146405e-06
3.951247e-05
-1.428573e-05
2.168904e-07
-3.23528e-05
3.821515e-06
-3.635192e-05
-4.412073e-05
-4.064034e-05
-3.925824e-05
-2.847226e-05
-6.712834e-05
-3.126845e-05
-7.60718e-05
-6.486287e-05
-5.310643e-05
-5.089338e-05
-8.133284e-05
-9.969611e-05
-0.0001300096
-9.82662e-06
-0.0002467789
-0.0006605764
-0.0005373934
-0.0004610828
-0.0004164678
-0.0003835432
-0.0003527858
-0.0003332702
-0.0003238433
-0.0002977296
-0.0002944514
-0.0002824092
-0.0002747853
-0.0002662068
-0.000262017
-0.0002559946
-0.0002516329
-0.0002487134
-0.000244959
-0.0002426981
-0.0002409339
-0.0002379928
-0.0002379297
-0.0002357299
-0.0002355013
-0.0002351682
-0.0002355083
-0.0002360666
-0.000237068
-0.0002385171
-0.0002402777
-0.000241942
-0.0002459101
-0.0002480741
-0.0002514564
-0.0002577154
-0.0002600986
-0.000267859
-0.0002754089
-0.0002851338
-0.000292667
-0.0003060033
-0.0003180659
-0.0003431471
-0.0003499522
-0.0003921371
-0.0004120878
-0.0004878128
-0.0005030155
-0.0006847514
-0.0002387503
-7.364338e-05
-9.061448e-05
-9.573224e-05
-4.258741e-05
-0.0001036234
-4.226202e-05
-4.861021e-05
-7.413956e-05
-4.990169e-05
-6.115644e-05
-3.055243e-05
-6.504271e-05
-4.104012e-06
-4.436511e-05
-2.134521e-05
-1.962679e-05
-1.325005e-05
1.021023e-05
-2.781884e-05
3.292381e-05
-1.096929e-06
3.487988e-05
2.509172e-05
0.0002160041
-2.457697e-05
1.793057e-05
-1.212666e-05
-5.723265e-05
-0.0001589641
-3.762093e-05
-0.0002616746
-0.0002507025
-1.891624e-05
-0.0002303718
-2.240512e-05
-2.559581e-05
-1.221284e-05
-3.248763e-05
-2.014818e-05
-0.0002267378
-0.0002778272
0.0001103994
8.839659e-05
4.539011e-05
-0.0002285858
-0.0002307418
-0.000212769
0.0001425527
0.0001908396
-1.471429e-05
2.111665e-05
0.0001803944
0.0001229024
-2.345255e-05
0.0001666662
-1.822539e-05
0.0002021869
0.0002063071
-6.353168e-05
-1.393479e-05
0.0002205795
-1.734507e-05
0.0002265059
0.0001094841
-2.616674e-05
0.0001996664
7.160151e-06
-7.908291e-05
-2.174317e-05
-8.729692e-05
-0.0002535818
0.0001783249
-0.0001414039
-2.837959e-05
7.403431e-05
-0.0001098138
-5.693711e-05
-3.504712e-05
0.0001003415
-2.884293e-05
-2.204856e-05
0.0001217043
0.000174124
-6.106066e-05
-3.645057e-05
-4.866976e-05
-3.400375e-06
0.0001093632
-3.185731e-05
-5.988857e-05
-0.000212692
-2.540927e-05
-2.44463e-05
-0.0002121389
-0.0001832905
0.0001535056
-9.057587e-05
-6.894686e-07
-0.0002801737
-3.775768e-05
-0.000232846
-4.726831e-05
-0.0002956866
-0.0001263388
0.0001118431
-2.867451e-05
-1.896276e-05
-4.16571e-06
-5.683789e-05
-0.0002312141
-2.063633e-05
-1.719199e-05
3.221587e-06
-1.563155e-05
-1.467615e-05
-5.008893e-05
-1.527434e-05
-1.276184e-05
-1.87049e-05
-0.0001869742
-0.0001220047
-4.812933e-05
-1.67663e-05
-5.183336e-05
-2.447126e-05
0.0001777468
-2.034631e-06
-1.940481e-05
-9.538746e-05
-6.632597e-05
-2.060289e-05
0.0001459798
-1.467555e-05
-7.102449e-05
-2.739849e-05
-0.0001382177
-8.1998e-05
-4.847374e-05
-4.427795e-05
0.0001409206
-0.0002545045
-2.057149e-05
-5.056326e-05
0.0002197543
0.00025148
-2.338129e-06
-9.653472e-05
-1.984433e-05
-1.672365e-05
-3.843523e-05
0.0001615138
-3.068647e-05
-1.38949e-05
-3.664665e-05
-1.505654e-05
0.0002090581
-1.348363e-05
-3.592256e-05
-6.965513e-05
0.0001234094
-3.227883e-05
-7.064368e-06
-3.966255e-05
0.0001672826
-9.047406e-05
0.0002691386
-2.59883e-05
-2.884637e-05
-1.513227e-05
-6.104104e-05
-0.0001766922
0.000132741
-3.306603e-05
-2.153771e-05
-3.057287e-05
3.197272e-06
-1.266379e-05
2.937761e-05
0.0001993838
-6.432881e-05
0.0002796445
-3.784118e-05
-6.255863e-05
-2.108858e-05
0.0002196447
1.964962e-05
-7.966516e-05
2.026135e-05
-1.707567e-05
-4.756172e-05
9.454305e-05
-0.0002031126
-3.421522e-05
-4.162791e-05
-1.88386e-05
-0.0001281723
0.0001640941
-3.278281e-05
8.349637e-05
8.783149e-05
-3.649137e-05
-0.0001421742
-5.388665e-05
-0.0001144255
-3.955801e-05
-0.0001187351
0.0001859022
-1.480063e-05
-0.0002407962
-0.0002599042
-2.50424e-05
-7.934483e-05
0.0001745718
-1.305339e-05
0.0001701706
-1.954839e-05
3.666778e-05
0.0001535919
-0.0001471125
-2.046413e-05
-1.630351e-05
0.0001934021
0.0002301639
-2.863032e-05
-2.386302e-05
-1.214679e-05
0.000165465
-1.75969e-05
-1.901559e-05
-0.0002358544
-3.047324e-05
-8.776642e-05
-6.035877e-05
-3.170486e-05
0.000121096
-1.685416e-05
-0.0001511567
4.663227e-05
4.163186e-05
-0.0001745603
-0.0001851592
6.200788e-05
0.0001997172
-1.2344e-05
-6.238273e-05
-0.0002326154
-2.271574e-05
-2.7652e-05
-6.333344e-05
-0.0002373329
0.0001794775
5.365752e-05
-0.0001693915
0.0001954229
-0.0002394948
-0.0001093044
-0.0002748596
-0.0003062495
-4.537594e-05
-0.0002401108
-2.444489e-05
-0.0002573972
0.0001096603
0.0001827892
0.0001235261
-8.123913e-05
-2.60447e-05
-2.901156e-05
1.859378e-05
-6.427957e-05
-3.053098e-05
-4.834354e-05
1.280635e-05
-4.854466e-06
-0.0002038124
1.60892e-05
-2.880845e-05
0.0001284578
-3.710145e-05
0.0002958938
-4.770193e-05
-1.128368e-05
-4.532688e-05
0.0001288512
-3.593962e-05
-1.722649e-05
0.0001922484
-0.0002879198
-4.667888e-05
-2.269987e-05
-4.802173e-05
0.0001479263
0.0001763746
9.954971e-05
0.0001652936
-0.0001031492
1.793537e-05
-0.0002253442
-4.843856e-05
-4.446659e-05
0.0002485622
-0.0002418594
-1.952865e-05
-0.0002188342
-0.0001366005
-4.079197e-05
-0.0002730641
-2.744945e-05
-2.110604e-05
-2.22173e-05
0.0001831636
-1.661075e-05
-0.0001011177
1.137518e-05
0.0002564217
0.0001254105
-0.0001950916
-2.990955e-05
-0.0001767093
-1.537556e-05
-3.9131e-05
-4.068275e-05
-0.0001049737
-0.0002219563
0.0002361257
-2.363916e-05
-2.881658e-05
6.842916e-05
-2.021478e-05
-0.0001552317
-9.085873e-05
-0.0001399153
-4.561203e-05
-2.371155e-05
-2.401021e-05
0.000182889
0.0002154793
0.0002018306
-0.0002036729
-1.41767e-05
-2.084359e-05
1.432609e-05
-9.82448e-05
-5.93568e-05
-0.0002226168
1.779203e-05
0.0001594755
-5.09909e-05
6.389102e-06
-3.716575e-05
-0.0001574134
5.239088e-05
-0.0002949304
0.0001726728
-1.921075e-05
-0.0002203114
-1.805916e-05
-1.531869e-05
-1.404853e-05
-1.564774e-05
-1.901975e-05
-7.82682e-05
-4.754167e-05
-2.718254e-05
0.0001948093
-4.495524e-05
0.0001416631
0.000107307
8.443428e-07
-1.852508e-05
0.0001899654
0.000157345
0.0001627028
0.0001487932
0.0002015776
-2.222341e-05
-3.91608e-05
-4.465437e-05
-0.0001134579
-0.0001315267
0.0002262433
0.0002100595
0.0002097452
0.0002297389
-7.888373e-05
-0.0002569817
-0.0002075543
-2.730825e-05
-7.064845e-05
9.5945e-05
-3.089477e-05
-3.422902e-05
-3.446316e-05
-1.969622e-05
-1.294579e-05
4.585753e-05
-4.279452e-05
-5.809162e-05
-4.418744e-05
-2.868524e-05
-4.261758e-05
0.0002583503
-6.404327e-05
-1.743606e-05
-3.653856e-05
-3.875102e-05
-1.563881e-05
8.851878e-07
0.0001793396
-3.516745e-05
-3.675493e-05
0.0002126963
0.0001931038
-0.0002349456
0.0001840501
3.243491e-05
-2.213526e-05
-2.634914e-05
0.0001911723
-2.535842e-05
-1.400737e-05
-0.0001558053
-1.628345e-05
-1.804946e-05
-1.515556e-05
4.142796e-05
1.740855e-05
0.0001948384
0.0002492671
-3.286716e-05
9.080188e-05
-1.361534e-05
-0.0002374967
-0.0002283234
-0.0002034866
0.0001877504
-1.597894e-05
-0.0002360995
-1.385514e-05
0.0001453106
-2.899129e-05
-5.548166e-05
-3.305438e-05
-2.734173e-05
-2.685374e-05
-1.903093e-05
0.0001966487
0.0001125765
-7.706239e-05
-3.972267e-05
-3.852691e-05
-2.238851e-05
-2.692786e-05
6.291596e-05
-2.785387e-05
-7.996793e-05
-0.0001047063
-7.257906e-05
8.738228e-05
-0.0002293995
-3.226964e-05
-4.879387e-05
-2.330625e-05
-2.721676e-05
-2.589227e-05
-5.404492e-05
-8.688301e-05
0.0001946143
-1.501186e-05
2.66089e-06
-3.97047e-05
-4.591375e-05
-3.518858e-05
-1.742268e-05
-8.282212e-05
0.0002137765
2.598668e-05
-3.80928e-05
-4.249449e-05
-3.795054e-05
-2.5688e-05
-2.03351e-05
-2.684198e-05
-2.698649e-05
-1.681019e-05
-8.292216e-05
-1.841543e-05
0.0001103033
-5.176957e-05
-9.362503e-05
-2.368009e-05
-5.770064e-05
-5.355487e-05
-1.403513e-05
0.0002077786
-2.28556e-05
-2.101097e-05
-0.0002093837
0.0002198165
-0.0002282177
-0.0002267072
-1.55561e-05
-2.473315e-05
0.000132747
-1.563877e-05
-1.633795e-05
0.0001467695
-4.23957e-05
0.0002119655
0.0002217356
-0.0002238101
0.0001566343
0.000202998
0.0001779742
-0.0002106743
0.0001835318
-2.045028e-05
0.000149832
-2.715598e-05
-9.657411e-05
-1.823067e-05
-4.011359e-05
0.0001725773
1.166391e-05
-2.133863e-05
-0.0001270544
9.674e-05
-0.000167133
-3.207775e-05
0.0001728364
0.0001992426
-7.447435e-05
0.0001078116
0.0001354042
-0.0001010537
1.066262e-05
-2.331379e-05
-1.862798e-05
-1.647848e-05
-8.43159e-05
-4.065937e-05
5.367257e-05
0.0002540224
-2.775791e-05
-5.185753e-05
0.0002512062
0.0001744307
-2.604237e-05
0.000122775
-0.0001519037
-3.924041e-05
-6.172577e-05
-0.0001596214
1.863875e-06
0.000206281
0.0002171021
0.0002085314
-0.0001039067
-3.921392e-05
-4.945839e-05
-2.921586e-05
-2.907218e-05
-2.194663e-05
-1.893022e-05
-2.080717e-05
-2.090268e-05
-1.710143e-05
-1.722334e-05
-6.201835e-05
-0.0002386342
-0.0003461245
-0.0001172372
8.563614e-05
-2.526987e-05
-2.890323e-05
-2.845922e-05
0.0002672831
-1.286185e-05
-2.333562e-05
-1.487825e-05
-1.336451e-05
-1.199439e-05
2.349642e-05
-0.0002997992
-9.851545e-05
5.172351e-06
-6.099434e-05
-6.401271e-05
4.27137e-05
0.0001109556
-6.378651e-05
-6.953458e-05
-0.0001210345
0.0001885911
-3.692698e-05
-2.292635e-05
-1.711511e-05
-3.913534e-05
-0.0002517839
-2.961817e-05
0.0001736711
0.0001804522
-1.354715e-05
-6.340314e-05
-6.638472e-05
3.135388e-05
8.186037e-06
-3.269419e-05
0.0001896773
-1.826581e-05
0.0001096733
-5.235905e-06
0.0001344931
0.000171062
3.220805e-05
1.38127e-05
1.091828e-05
-0.000160787
0.0001092775
0.0001605463
-3.145831e-05
0.0001394304
-7.456754e-06
-1.605361e-05
-0.0002286377
5.757525e-05
-0.0001539403
-3.639595e-05
-2.356676e-05
-0.0002578274
9.763046e-05
0.0002447724
-0.0002874151
-1.621336e-05
-2.268266e-05
-7.360817e-05
4.654912e-05
-3.26387e-05
-2.240078e-05
-2.244377e-05
-3.20795e-05
-0.0002246058
-0.0001185215
-0.0001749094
-0.0002320887
-0.0002201075
-2.52444e-05
7.023358e-05
6.25946e-05
5.878625e-06
0.0001245939
0.0002680608
0.0001601753
-1.959179e-05
-2.209756e-05
-1.321891e-05
-1.476379e-05
-1.743749e-05
-1.24678e-05
-1.733429e-05
0.000164235
-2.706984e-05
0.0002601735
-1.256671e-05
-2.605244e-05
-4.080029e-05
0.0001250874
-3.340357e-05
-3.624322e-05
-0.0002635741
-0.0001727589
-0.0002719747
-0.0001890404
0.0001180015
-0.0003649051
-3.468693e-05
-3.231944e-05
-7.282905e-05
-4.583837e-05
-0.0001736004
-0.0002164766
-0.0001451537
0.000146843
-0.000238434
-3.819763e-05
-4.502429e-05
9.080347e-06
-3.5163e-05
0.0001601473
-4.949582e-05
-3.849779e-05
-0.000250197
-2.581043e-05
-3.306354e-05
-0.0001454689
-4.513196e-05
-2.06669e-05
-0.0001537306
-2.357776e-05
0.0001109643
-2.933209e-05
-3.090224e-05
-2.503624e-05
0.0002144742
-0.0001777132
-1.360408e-05
-1.274831e-05
5.631835e-05
-0.000149265
-0.0001659896
-1.20092e-05
-4.519007e-05
0.0001137001
-2.261373e-05
-0.000210362
-2.654179e-05
-2.422495e-05
-7.614698e-05
-0.000269246
-0.000272402
0.0001767105
-4.533046e-05
-3.141755e-05
0.0001899946
-0.0001377159
0.0001442325
-4.460678e-05
-7.803876e-05
0.0001734872
-0.0002333928
-2.022138e-05
1.185025e-05
-2.3459e-05
-0.0002419198
-1.45251e-05
-1.343189e-05
0.0001930461
0.0001508853
0.0001700012
0.0001710912
0.0001904201
0.0002183892
-8.218778e-06
2.569045e-05
4.027929e-07
-3.622648e-05
-3.038445e-05
-3.715746e-05
-3.413989e-05
-0.0002284045
-1.513219e-05
-1.399809e-05
-2.775319e-05
-3.721351e-05
0.0002447796
0.0002297793
0.0001719446
0.0001858896
-3.209099e-05
-5.985857e-05
-2.864248e-05
-2.700218e-05
0.0001113428
-2.533653e-05
-2.178407e-06
1.295809e-06
-5.133516e-05
0.0001714972
0.0002136449
-1.864949e-05
-1.60073e-05
6.369403e-05
-6.273737e-05
-0.0001899233
-2.763178e-05
0.0001079839
-1.226247e-05
-3.927232e-05
-2.104346e-05
-8.986275e-05
-1.559915e-05
9.479487e-05
-0.0001951445
0.0002484876
-3.145667e-05
0.0001097525
5.329145e-05
5.97023e-05
-0.0002309589
-4.143714e-05
-0.0002667047
1.005559e-05
-3.386673e-05
-0.0001261861
-5.915517e-05
-1.717276e-05
-1.266018e-05
-2.847691e-05
-2.175086e-05
-2.601857e-05
6.964147e-05
0.0001294875
-6.725467e-05
-0.0001074603
-2.958331e-05
6.015486e-05
-9.348041e-05
-0.0002390319
-4.607953e-05
-1.81481e-05
-0.0002050334
5.877968e-05
-1.402446e-05
8.682021e-06
-2.468912e-05
-4.780851e-05
0.0002538179
0.000224424
0.0002488766
0.0002094347
-0.0002369701
-1.634409e-05
3.234387e-05
-4.723064e-05
-0.0001714117
-1.733399e-05
-4.238591e-05
0.0001529524
-2.121078e-05
-1.956027e-05
-1.346386e-05
-1.784942e-05