/*--------------------------------*- C++ -*----------------------------------*\
| =========                 |                                                 |
| \\      /  F ield         | OpenFOAM: The Open Source CFD Toolbox           |
|  \\    /   O peration     | Version:  2406                                  |
|   \\  /    A nd           | Website:  www.openfoam.com                      |
|    \\/     M anipulation  |                                                 |
\*---------------------------------------------------------------------------*/
FoamFile
{
    version     2.0;
    format      ascii;
    arch        "LSB;label=32;scalar=64";
    class       volVectorField;
    location    "0.06";
    object      U;
}
// * * * * * * * * * * * * * * * * * * * * * * * * * * * * * * * * * * * * * //

dimensions      [0 1 -1 0 0 0 0];

internalField   nonuniform List<vector> 
4531
(
(4.604026e-05 9.219516e-07 0)
(1.758439e-05 -1.693564e-07 9.58346e-29)
(2.221215e-05 3.134584e-08 0)
(1.792708e-05 1.958982e-08 0)
(1.817114e-05 -9.829395e-09 0)
(1.727674e-05 2.331702e-08 0)
(1.634929e-05 -1.077253e-08 0)
(1.674233e-05 8.890903e-09 -1.79738e-28)
(1.553456e-05 1.138934e-08 0)
(1.538206e-05 -7.183288e-09 0)
(1.54979e-05 8.024689e-09 -1.134656e-27)
(1.508837e-05 -1.526071e-10 2.066017e-27)
(1.447701e-05 1.28768e-08 1.525224e-27)
(1.467123e-05 -6.245112e-09 -1.530915e-27)
(1.541043e-05 4.365703e-10 0)
(1.517428e-05 2.149142e-09 0)
(1.509078e-05 2.75146e-09 0)
(1.500587e-05 7.177052e-09 0)
(1.594438e-05 -1.579673e-08 0)
(1.609412e-05 2.011087e-08 0)
(1.6546e-05 -4.815684e-09 -3.737824e-30)
(1.682059e-05 5.825633e-08 0)
(2.078257e-05 -2.129514e-07 -4.424388e-27)
(1.001212e-05 1.189088e-06 5.887042e-27)
(4.163018e-05 -1.802868e-06 0)
(1.627376e-06 -2.744749e-05 -1.729172e-24)
(-1.362283e-06 6.331084e-06 -6.46609e-27)
(1.455702e-07 -5.353654e-06 1.422601e-25)
(-8.591315e-08 -2.038153e-06 -1.449145e-25)
(-2.683403e-08 -2.098157e-06 -5.828843e-26)
(-1.96998e-08 -1.651233e-06 1.133395e-25)
(-1.193842e-08 -1.343671e-06 -5.504782e-26)
(-1.382034e-08 -9.135788e-07 0)
(-1.351624e-08 -8.92075e-07 -4.751396e-26)
(-1.585888e-09 -8.635291e-07 4.752168e-26)
(-6.003053e-09 -6.036259e-07 0)
(-3.633844e-09 -5.593941e-07 0)
(-3.126223e-09 -4.979209e-07 -2.13591e-26)
(-9.867193e-10 -4.028612e-07 2.136096e-26)
(-2.14546e-09 -3.172479e-07 0)
(-1.138294e-09 -2.98809e-07 2.025095e-26)
(-6.706916e-10 -2.491251e-07 -4.005349e-26)
(-4.597043e-10 -2.178082e-07 4.898005e-27)
(1.569198e-10 -1.709382e-07 4.837456e-27)
(1.358532e-10 -1.050408e-07 -2.519405e-27)
(-3.390304e-10 -8.650466e-08 -1.207874e-26)
(6.252465e-10 -5.379022e-08 6.020256e-27)
(-1.186541e-10 -7.865341e-09 -3.58063e-27)
(1.642269e-10 -1.684202e-09 1.791638e-27)
(1.177072e-11 1.554451e-08 6.008514e-28)
(9.445789e-11 2.495713e-08 -3.581157e-27)
(5.09729e-11 3.781289e-08 1.192257e-27)
(9.201547e-11 6.221289e-08 -4.807062e-27)
(-1.540019e-10 7.770471e-08 4.798278e-27)
(8.057205e-11 1.117683e-07 7.293596e-27)
(-8.138222e-10 1.287094e-07 -9.683909e-27)
(7.48395e-11 1.561447e-07 -9.875672e-27)
(-4.60621e-10 2.46036e-07 9.93103e-27)
(-1.615314e-09 2.587009e-07 0)
(-4.919926e-10 3.50536e-07 0)
(-2.761805e-09 4.094458e-07 -2.132119e-26)
(-3.567279e-09 4.089317e-07 2.131934e-26)
(-5.237926e-09 4.377633e-07 0)
(-4.211723e-09 5.250782e-07 0)
(-7.424402e-09 6.448767e-07 -4.810323e-26)
(-6.593236e-09 8.161802e-07 4.809541e-26)
(-1.614841e-08 9.020976e-07 0)
(-7.66054e-09 1.309717e-06 5.506115e-26)
(-2.841311e-08 1.507283e-06 -5.504708e-26)
(-1.135346e-08 2.125256e-06 0)
(-1.134054e-07 1.772644e-06 -1.466453e-25)
(1.908822e-07 5.51432e-06 1.491162e-25)
(-1.398388e-06 -6.297594e-06 -3.124457e-25)
(1.612164e-06 2.661838e-05 2.022295e-24)
(4.224683e-05 1.822695e-06 1.091419e-24)
(1.057198e-05 -1.181432e-06 4.798499e-27)
(2.063283e-05 2.259671e-07 9.856123e-27)
(1.681204e-05 -7.16456e-08 -1.073374e-26)
(1.655612e-05 1.589536e-08 -5.027938e-30)
(1.559367e-05 -2.14844e-08 0)
(1.56148e-05 7.062078e-09 0)
(1.537905e-05 -1.048342e-08 0)
(1.510227e-05 9.653387e-09 -1.781476e-27)
(1.446457e-05 -1.215123e-08 4.700092e-27)
(1.510192e-05 -1.007802e-09 -2.918694e-27)
(1.46932e-05 -2.27977e-09 0)
(1.502353e-05 -8.727794e-09 0)
(1.529461e-05 6.835665e-09 6.766745e-28)
(1.535866e-05 -7.786167e-09 0)
(1.55096e-05 3.191859e-09 3.250525e-28)
(1.588402e-05 -1.451864e-08 -3.252896e-28)
(1.660513e-05 -5.816468e-10 -1.491721e-28)
(1.715273e-05 -1.036033e-08 2.247676e-27)
(1.730397e-05 1.037118e-08 2.495951e-27)
(1.718793e-05 -3.875784e-09 -7.503696e-27)
(1.827465e-05 -1.646178e-08 4.194836e-27)
(2.293025e-05 -5.942483e-08 -7.207264e-27)
(1.832913e-05 1.992915e-07 3.298641e-26)
(4.424878e-05 -8.931611e-07 1.693349e-25)
(3.269953e-05 -3.142783e-05 0)
(1.185547e-05 -1.209115e-05 4.105204e-24)
(1.472637e-05 -1.466293e-05 -6.312822e-24)
(1.21964e-05 -1.220807e-05 3.926318e-26)
(1.15801e-05 -1.155849e-05 -5.098273e-24)
(1.07854e-05 -1.077842e-05 4.800166e-24)
(1.078341e-05 -1.078605e-05 4.443386e-24)
(1.033061e-05 -1.031206e-05 4.693649e-24)
(9.524952e-06 -9.51679e-06 -4.387505e-24)
(9.787599e-06 -9.799811e-06 4.093731e-24)
(9.448773e-06 -9.426992e-06 -4.730286e-24)
(8.775326e-06 -8.762834e-06 3.551614e-26)
(8.405323e-06 -8.403718e-06 -3.282854e-26)
(8.646749e-06 -8.656252e-06 3.286096e-26)
(8.651469e-06 -8.645012e-06 0)
(8.165664e-06 -8.15709e-06 0)
(7.948802e-06 -7.943883e-06 -4.300256e-24)
(7.962798e-06 -7.964964e-06 3.297938e-29)
(7.804623e-06 -7.808007e-06 -4.419224e-24)
(7.791978e-06 -7.777948e-06 3.418145e-26)
(7.8227e-06 -7.835955e-06 0)
(7.759215e-06 -7.751787e-06 3.534432e-26)
(7.862841e-06 -7.874525e-06 -3.487109e-26)
(7.927841e-06 -7.928543e-06 0)
(7.656665e-06 -7.654069e-06 0)
(7.646608e-06 -7.652329e-06 -1.962906e-27)
(7.587501e-06 -7.594179e-06 0)
(7.606712e-06 -7.608937e-06 -1.821264e-27)
(7.841224e-06 -7.866508e-06 5.050972e-24)
(7.931284e-06 -7.943659e-06 -2.0547e-26)
(7.94222e-06 -7.963727e-06 5.476992e-24)
(8.033438e-06 -8.075248e-06 -2.390165e-26)
(8.096086e-06 -8.122511e-06 2.390246e-26)
(9.00608e-06 -9.19963e-06 0)
(8.692171e-06 -8.87218e-06 8.130714e-24)
(8.543418e-06 8.706354e-06 8.303966e-24)
(8.991905e-06 9.198391e-06 -7.758623e-27)
(8.031863e-06 8.055385e-06 2.41015e-26)
(7.989841e-06 8.032053e-06 -5.949963e-24)
(7.899106e-06 7.92044e-06 5.497234e-24)
(7.885961e-06 7.897919e-06 -5.450587e-24)
(7.80966e-06 7.834136e-06 -2.056719e-26)
(7.588786e-06 7.591222e-06 1.775781e-27)
(7.572345e-06 7.578586e-06 0)
(7.64292e-06 7.648412e-06 0)
(7.665669e-06 7.662727e-06 0)
(7.95519e-06 7.955717e-06 0)
(7.898137e-06 7.90981e-06 0)
(7.807854e-06 7.799823e-06 0)
(7.901094e-06 7.914264e-06 0)
(7.876212e-06 7.862164e-06 0)
(7.920133e-06 7.922824e-06 4.389539e-24)
(8.07517e-06 8.078912e-06 4.273301e-24)
(8.021301e-06 8.016837e-06 0)
(8.217958e-06 8.210111e-06 4.480711e-24)
(8.680817e-06 8.674697e-06 -4.362834e-24)
(8.668461e-06 8.678006e-06 0)
(8.427991e-06 8.426253e-06 3.461957e-26)
(8.803956e-06 8.791341e-06 4.413785e-24)
(9.476464e-06 9.454774e-06 3.434329e-26)
(9.809499e-06 9.821867e-06 -3.394563e-26)
(9.533991e-06 9.526126e-06 -4.389931e-24)
(1.032422e-05 1.030647e-05 7.45278e-27)
(1.070321e-05 1.070829e-05 -8.902513e-24)
(1.068303e-05 1.067631e-05 7.464116e-26)
(1.140254e-05 1.138644e-05 -5.070117e-24)
(1.188189e-05 1.189789e-05 0)
(1.527797e-05 1.516273e-05 0)
(1.177147e-05 1.207919e-05 1.541486e-26)
(3.196686e-05 3.067123e-05 1.599737e-23)
(2.677656e-05 2.535755e-05 -2.943381e-23)
(2.828928e-05 2.861912e-05 0)
(2.570311e-05 2.582598e-05 0)
(2.548213e-05 2.55408e-05 3.87078e-26)
(2.523439e-05 2.52623e-05 -9.617917e-24)
(2.519547e-05 2.518984e-05 1.895392e-23)
(2.496198e-05 2.505165e-05 8.79607e-24)
(2.428414e-05 2.43054e-05 -1.742063e-23)
(2.421683e-05 2.42146e-05 -8.525829e-24)
(2.443845e-05 2.443241e-05 0)
(2.453892e-05 2.447755e-05 0)
(2.542627e-05 2.537918e-05 -6.227899e-26)
(2.526523e-05 2.531693e-05 7.69541e-24)
(2.498391e-05 2.494313e-05 -6.148168e-26)
(2.527298e-05 2.53068e-05 0)
(2.525038e-05 2.517348e-05 7.638535e-24)
(2.53311e-05 2.531082e-05 -7.558246e-24)
(2.584504e-05 2.585518e-05 0)
(2.572274e-05 2.56902e-05 0)
(2.635469e-05 2.625581e-05 -7.835058e-24)
(2.771121e-05 2.762778e-05 -7.498783e-24)
(2.772735e-05 2.778278e-05 -5.640017e-26)
(2.709021e-05 2.707318e-05 1.158514e-25)
(2.831453e-05 2.813327e-05 -7.738665e-24)
(3.033308e-05 3.011942e-05 6.155491e-26)
(3.136329e-05 3.139968e-05 0)
(3.070323e-05 3.058155e-05 7.469018e-24)
(3.317749e-05 3.295573e-05 1.616085e-23)
(3.434486e-05 3.430203e-05 7.630589e-24)
(3.442126e-05 3.426061e-05 0)
(3.67243e-05 3.648563e-05 8.684192e-24)
(3.882957e-05 3.836134e-05 0)
(4.858046e-05 4.816114e-05 0)
(4.192228e-05 4.02371e-05 -1.083069e-23)
(9.884909e-05 9.238753e-05 -2.771529e-23)
(0.0001008412 -9.468405e-05 2.494831e-23)
(4.231025e-05 -4.023309e-05 6.986367e-26)
(4.703902e-05 -4.677899e-05 6.161954e-27)
(3.977273e-05 -3.937874e-05 -7.548831e-26)
(3.742515e-05 -3.716343e-05 0)
(3.475255e-05 -3.457439e-05 2.964094e-26)
(3.459624e-05 -3.453329e-05 7.633418e-24)
(3.320764e-05 -3.297161e-05 0)
(3.067903e-05 -3.055228e-05 -7.528496e-24)
(3.129704e-05 -3.133028e-05 -1.159121e-25)
(3.024745e-05 -3.003252e-05 -2.457824e-27)
(2.822482e-05 -2.804454e-05 6.093205e-26)
(2.701737e-05 -2.700153e-05 0)
(2.765735e-05 -2.771159e-05 0)
(2.761813e-05 -2.752935e-05 0)
(2.619191e-05 -2.608484e-05 5.991603e-26)
(2.549511e-05 -2.54534e-05 7.401239e-24)
(2.549616e-05 -2.549631e-05 5.785052e-26)
(2.49668e-05 -2.495384e-05 7.433397e-24)
(2.498027e-05 -2.490868e-05 0)
(2.502624e-05 -2.506656e-05 -5.976227e-26)
(2.482825e-05 -2.479545e-05 8.09441e-24)
(2.515266e-05 -2.520741e-05 -1.208355e-25)
(2.534011e-05 -2.529787e-05 1.250853e-25)
(2.451028e-05 -2.445436e-05 -6.322895e-26)
(2.445054e-05 -2.444856e-05 8.196762e-24)
(2.426465e-05 -2.42654e-05 0)
(2.434242e-05 -2.436559e-05 8.651284e-24)
(2.506321e-05 -2.515901e-05 -6.750246e-26)
(2.533911e-05 -2.533463e-05 9.36701e-24)
(2.537186e-05 -2.539986e-05 -9.433411e-24)
(2.562394e-05 -2.568509e-05 1.017665e-23)
(2.590281e-05 -2.602588e-05 1.104138e-23)
(2.835889e-05 -2.86839e-05 -4.250558e-26)
(2.722102e-05 -2.587552e-05 -4.33542e-23)
(0.0001289723 7.003148e-06 -5.446742e-24)
(4.245445e-05 4.889295e-08 -2.530505e-27)
(6.462468e-05 8.496803e-08 -4.751119e-26)
(5.485139e-05 1.701856e-07 3.547867e-26)
(5.332182e-05 1.79982e-07 -5.889741e-29)
(5.021946e-05 3.067715e-08 0)
(5.012093e-05 5.448898e-08 2.059142e-27)
(4.93962e-05 1.163573e-08 1.969472e-27)
(4.852688e-05 1.067771e-07 -1.022065e-26)
(4.650882e-05 -1.662283e-08 6.124378e-27)
(4.834848e-05 -2.314054e-08 0)
(4.716406e-05 -1.073735e-08 -5.98924e-27)
(4.811214e-05 -6.441566e-08 9.745653e-27)
(4.898917e-05 9.043208e-09 -4.30239e-27)
(4.928702e-05 -3.600802e-08 3.147738e-27)
(4.979324e-05 -1.782299e-08 0)
(5.091649e-05 -1.231883e-07 7.60491e-28)
(5.318988e-05 -8.705373e-08 6.811026e-28)
(5.496732e-05 -9.331053e-08 -6.342801e-27)
(5.55462e-05 1.563691e-08 6.056888e-27)
(5.535671e-05 -1.227316e-07 1.435826e-26)
(5.918419e-05 -4.590317e-07 -1.430541e-26)
(7.279119e-05 -1.76728e-07 0)
(6.245118e-05 -1.117756e-06 8.37376e-26)
(0.0001350548 -4.249204e-06 -4.159581e-25)
(8.198174e-06 -8.42318e-05 3.060375e-24)
(1.715959e-08 9.940455e-06 -3.169889e-25)
(-1.851798e-07 -1.58273e-05 2.361892e-25)
(1.516513e-07 -7.67106e-06 0)
(4.433006e-08 -7.121144e-06 -8.116958e-28)
(5.506572e-08 -5.634604e-06 0)
(6.200411e-08 -4.588515e-06 -1.8033e-25)
(4.160144e-08 -3.20964e-06 1.804305e-25)
(-9.333301e-09 -3.016834e-06 -6.422272e-28)
(3.226829e-08 -2.884515e-06 7.966594e-26)
(2.096543e-08 -2.074039e-06 -7.93904e-26)
(1.043314e-08 -1.892581e-06 0)
(1.054536e-08 -1.678895e-06 0)
(1.727713e-08 -1.363904e-06 0)
(7.476412e-09 -1.086993e-06 0)
(5.646795e-09 -1.006282e-06 -3.484543e-26)
(6.393387e-09 -8.409123e-07 2.144275e-28)
(6.319021e-09 -7.331157e-07 8.431867e-27)
(9.818092e-09 -5.756418e-07 2.511443e-26)
(7.898664e-09 -3.673051e-07 -1.259685e-26)
(3.239463e-09 -2.969575e-07 1.241019e-26)
(8.141081e-09 -1.892076e-07 -2.690005e-26)
(3.559111e-09 -4.092737e-08 1.031285e-26)
(2.553561e-09 -1.023657e-08 -1.025121e-27)
(2.016936e-09 4.914451e-08 8.442935e-30)
(2.132701e-09 8.551676e-08 1.020936e-27)
(3.061825e-09 1.315728e-07 1.027708e-26)
(3.710824e-09 2.144889e-07 4.126493e-27)
(3.816217e-09 2.714496e-07 0)
(5.225407e-09 3.823929e-07 1.250466e-26)
(2.556277e-09 4.469385e-07 0)
(1.105244e-08 5.42175e-07 0)
(7.936053e-09 8.24502e-07 -3.452405e-26)
(7.283863e-09 8.880027e-07 7.021337e-26)
(1.493527e-08 1.185859e-06 3.662916e-26)
(2.45893e-09 1.377175e-06 -7.20177e-26)
(2.754874e-09 1.398549e-06 7.553534e-26)
(7.198435e-09 1.51706e-06 -7.522401e-26)
(1.953795e-08 1.807495e-06 -3.082848e-28)
(1.966049e-08 2.220026e-06 6.324097e-28)
(2.633602e-08 2.780211e-06 0)
(2.810639e-08 3.147868e-06 1.807541e-25)
(6.752207e-08 4.461904e-06 8.088682e-27)
(3.681062e-08 5.209076e-06 -1.901016e-25)
(7.340787e-08 7.140902e-06 0)
(9.652756e-08 6.924925e-06 0)
(-5.56066e-08 1.625907e-05 -4.492725e-27)
(-1.840043e-07 -9.980361e-06 9.885625e-27)
(8.237793e-06 8.173938e-05 2.793118e-24)
(0.0001404476 4.273603e-06 8.803831e-26)
(6.040555e-05 1.398256e-06 -9.068804e-26)
(7.099932e-05 9.305344e-08 3.943622e-26)
(5.823333e-05 3.533442e-07 -5.355005e-27)
(5.828069e-05 4.036454e-08 -1.906789e-26)
(5.550573e-05 2.170672e-07 1.150367e-26)
(5.255387e-05 1.230144e-08 -7.510347e-27)
(5.353006e-05 8.949379e-08 1.230121e-27)
(4.989971e-05 1.283326e-07 1.451059e-28)
(4.926795e-05 -2.360971e-08 8.009698e-28)
(4.962506e-05 4.394375e-08 -3.886656e-27)
(4.835472e-05 5.354858e-08 5.456127e-27)
(4.652818e-05 5.375407e-08 -3.955519e-27)
(4.717368e-05 -7.692294e-08 -3.416813e-27)
(4.937103e-05 -2.423727e-08 3.439983e-27)
(4.866262e-05 2.01883e-08 -5.494959e-27)
(4.83584e-05 1.486257e-08 5.535775e-27)
(4.827734e-05 -5.974164e-08 -1.94408e-27)
(5.118302e-05 -1.273393e-07 1.942951e-27)
(5.175747e-05 -2.349603e-09 0)
(5.329126e-05 -1.240304e-07 6.415174e-30)
(5.484914e-05 -2.120781e-07 0)
(6.503609e-05 2.50928e-10 6.862701e-27)
(4.064882e-05 -4.998374e-09 -3.280615e-26)
(0.0001271479 -7.026592e-06 0)
(0.0002466533 1.210349e-05 0)
(0.0001168294 5.209982e-06 3.069069e-27)
(0.0001297066 5.19008e-07 -2.503076e-26)
(0.0001077648 1.156494e-06 0)
(0.0001067177 2.415544e-07 -1.435891e-26)
(0.0001017732 6.921357e-07 6.209954e-27)
(9.638409e-05 1.110411e-07 2.523321e-27)
(9.771009e-05 3.038389e-07 3.681681e-28)
(9.145226e-05 4.21754e-07 -1.722174e-28)
(9.004881e-05 -4.614476e-08 -9.50618e-28)
(9.070342e-05 1.270695e-07 -4.582554e-27)
(8.845156e-05 1.997013e-07 7.806174e-28)
(8.533785e-05 1.358414e-07 -1.482231e-27)
(8.656445e-05 -2.220095e-07 6.191343e-27)
(9.031009e-05 -9.398576e-08 8.43302e-27)
(8.909329e-05 7.425202e-08 -8.479492e-27)
(8.84783e-05 3.614668e-08 0)
(8.866267e-05 -2.366589e-07 -1.749115e-28)
(9.384559e-05 -3.99014e-07 0)
(9.507005e-05 -8.919367e-08 2.748472e-27)
(9.808864e-05 -4.459489e-07 -2.744835e-27)
(0.0001019104 -7.862436e-07 0)
(0.0001173243 3.922663e-08 -8.113867e-27)
(8.697486e-05 -2.747939e-06 4.364105e-25)
(0.0002221993 -1.926615e-05 -4.685461e-25)
(2.381635e-05 -0.0001484972 1.314933e-23)
(3.167963e-06 2.271771e-06 6.378043e-25)
(-4.381879e-07 -2.793918e-05 0)
(5.70098e-07 -1.591052e-05 -5.124577e-25)
(2.381705e-07 -1.384087e-05 5.140927e-25)
(2.292628e-07 -1.094724e-05 0)
(2.353183e-07 -8.917863e-06 -3.430709e-27)
(1.66924e-07 -6.383622e-06 -3.266509e-27)
(4.40384e-09 -5.819424e-06 7.612635e-28)
(1.088526e-07 -5.498461e-06 -1.507641e-27)
(8.475463e-08 -4.043988e-06 -3.614923e-28)
(4.357705e-08 -3.646809e-06 0)
(4.435886e-08 -3.224976e-06 0)
(6.149605e-08 -2.627464e-06 0)
(3.164155e-08 -2.115302e-06 8.385645e-26)
(2.34412e-08 -1.930461e-06 -1.160603e-27)
(2.38887e-08 -1.615419e-06 -5.194376e-28)
(2.442499e-08 -1.405537e-06 -2.001721e-26)
(3.497642e-08 -1.103738e-06 -3.967818e-26)
(2.813486e-08 -7.265137e-07 7.922972e-26)
(1.407791e-08 -5.793302e-07 -3.952289e-26)
(2.754224e-08 -3.76883e-07 1.95702e-26)
(1.454079e-08 -1.025682e-07 -1.95946e-26)
(9.822895e-09 -2.764728e-08 2.439739e-27)
(8.282045e-09 8.880463e-08 2.416802e-27)
(8.318221e-09 1.663738e-07 -1.46299e-26)
(1.175641e-08 2.592528e-07 -9.77734e-30)
(1.390196e-08 4.199536e-07 -4.896758e-27)
(1.476995e-08 5.369178e-07 0)
(1.890106e-08 7.438356e-07 -9.892732e-27)
(1.24774e-08 8.799515e-07 -1.98425e-26)
(3.845065e-08 1.066263e-06 -4.015968e-26)
(2.978539e-08 1.575483e-06 2.447144e-25)
(3.077243e-08 1.730542e-06 1.442276e-27)
(5.169412e-08 2.283941e-06 -8.399874e-26)
(1.523411e-08 2.640297e-06 -1.34329e-27)
(1.65763e-08 2.720274e-06 -1.722644e-27)
(3.524847e-08 2.983115e-06 0)
(7.424078e-08 3.534695e-06 1.915111e-25)
(8.332507e-08 4.342403e-06 -1.903341e-25)
(1.036176e-07 5.39534e-06 2.037383e-25)
(1.336547e-07 6.226935e-06 -2.035993e-25)
(2.40186e-07 8.661726e-06 8.676399e-28)
(1.887382e-07 1.022168e-05 -2.672952e-27)
(2.976834e-07 1.377395e-05 0)
(4.570582e-07 1.470976e-05 0)
(-1.435033e-07 2.85724e-05 -5.688796e-25)
(2.624134e-06 -2.541909e-06 1.727183e-24)
(2.393645e-05 0.0001442849 -8.243599e-24)
(0.0002252329 1.914427e-05 4.431139e-25)
(9.029121e-05 2.887182e-06 0)
(0.00011666 2.134964e-07 4.95914e-26)
(0.0001019771 6.832961e-07 -2.561362e-26)
(9.815517e-05 6.152079e-07 -1.384105e-26)
(9.235107e-05 1.916453e-07 1.344797e-27)
(9.188398e-05 1.67441e-07 -1.319037e-27)
(9.059285e-05 7.748101e-08 -4.859242e-27)
(8.902931e-05 3.340166e-07 1.207905e-26)
(8.534927e-05 -1.610049e-08 4.513639e-27)
(8.838115e-05 -6.946855e-08 -1.178878e-26)
(8.64028e-05 -4.845812e-08 1.722167e-26)
(8.795021e-05 -1.938633e-07 -1.150641e-26)
(8.955942e-05 -7.04679e-09 0)
(9.026411e-05 -1.053694e-07 -4.402943e-27)
(9.122559e-05 -8.787289e-08 4.41133e-27)
(9.313632e-05 -3.88561e-07 1.028288e-28)
(9.724068e-05 -3.231622e-07 -5.908685e-27)
(0.0001005438 -3.148705e-07 2.811126e-27)
(0.0001017708 -5.174748e-09 1.07075e-26)
(0.0001017197 -4.716163e-07 -1.327651e-26)
(0.0001096173 -1.546819e-06 0)
(0.0001325018 -6.655105e-07 5.717941e-26)
(0.0001200439 -4.385164e-06 0)
(0.0002374414 -1.208728e-05 -1.386261e-24)
(0.0001805267 -0.0001627798 -5.715059e-23)
(8.385436e-05 -7.617099e-05 -2.977917e-25)
(8.616957e-05 -8.509714e-05 0)
(7.390807e-05 -7.241259e-05 0)
(6.897466e-05 -6.810659e-05 -1.031713e-23)
(6.390733e-05 -6.324922e-05 -1.920005e-23)
(6.335363e-05 -6.309165e-05 -9.423859e-24)
(6.093244e-05 -6.014822e-05 1.474057e-25)
(5.637397e-05 -5.592379e-05 9.003617e-24)
(5.711967e-05 -5.716499e-05 0)
(5.52826e-05 -5.457934e-05 0)
(5.179579e-05 -5.11911e-05 0)
(4.953834e-05 -4.948178e-05 0)
(5.049167e-05 -5.061671e-05 1.35303e-25)
(5.032043e-05 -5.002764e-05 8.855367e-24)
(4.793741e-05 -4.75944e-05 0)
(4.666653e-05 -4.651954e-05 0)
(4.65843e-05 -4.657224e-05 0)
(4.557227e-05 -4.552078e-05 0)
(4.572268e-05 -4.549951e-05 -1.376171e-25)
(4.567486e-05 -4.577543e-05 2.817174e-25)
(4.534512e-05 -4.525902e-05 -9.600639e-24)
(4.591301e-05 -4.606198e-05 -8.899103e-24)
(4.622906e-05 -4.609233e-05 0)
(4.478464e-05 -4.45898e-05 9.513781e-24)
(4.461095e-05 -4.459952e-05 -1.537457e-25)
(4.428171e-05 -4.4281e-05 -1.008741e-23)
(4.445546e-05 -4.454475e-05 7.718157e-26)
(4.569471e-05 -4.597612e-05 1.043065e-23)
(4.619008e-05 -4.617091e-05 -2.222269e-23)
(4.622573e-05 -4.629167e-05 9.046468e-26)
(4.657231e-05 -4.675379e-05 -1.205333e-23)
(4.719065e-05 -4.75558e-05 -8.067412e-26)
(5.050406e-05 -5.101896e-05 5.043869e-26)
(4.782433e-05 -4.287466e-05 3.506143e-23)
(4.708519e-05 4.192812e-05 1.786432e-23)
(5.032437e-05 5.082515e-05 1.343456e-23)
(4.68373e-05 4.720355e-05 -1.301575e-23)
(4.63092e-05 4.648184e-05 -1.912241e-25)
(4.597585e-05 4.604089e-05 1.134714e-23)
(4.593084e-05 4.590786e-05 -1.11096e-23)
(4.551035e-05 4.577262e-05 -1.051407e-23)
(4.434747e-05 4.442865e-05 1.028473e-23)
(4.419602e-05 4.41856e-05 1.019035e-23)
(4.458854e-05 4.45633e-05 9.856687e-24)
(4.483698e-05 4.46235e-05 -9.628095e-24)
(4.638431e-05 4.623069e-05 1.47901e-25)
(4.611787e-05 4.625549e-05 -1.826701e-23)
(4.562961e-05 4.55172e-05 1.458927e-25)
(4.611818e-05 4.619595e-05 -8.843917e-24)
(4.621698e-05 4.597367e-05 -1.668755e-25)
(4.622883e-05 4.615504e-05 2.458226e-27)
(4.720092e-05 4.721967e-05 1.378381e-25)
(4.707308e-05 4.69581e-05 0)
(4.822517e-05 4.790973e-05 -9.054304e-24)
(5.04879e-05 5.02134e-05 8.696397e-24)
(5.06198e-05 5.074926e-05 1.348274e-25)
(4.967158e-05 4.961157e-05 -1.409166e-25)
(5.195625e-05 5.134875e-05 1.818605e-23)
(5.543372e-05 5.473479e-05 -1.397337e-25)
(5.723377e-05 5.729016e-05 -8.174426e-24)
(5.640942e-05 5.597701e-05 -9.080553e-24)
(6.086083e-05 6.012483e-05 -9.390142e-24)
(6.290086e-05 6.270434e-05 1.463577e-25)
(6.328832e-05 6.270047e-05 -9.867341e-24)
(6.770911e-05 6.687133e-05 1.042909e-23)
(7.245025e-05 7.072996e-05 -1.038239e-23)
(8.866134e-05 8.719932e-05 -1.929355e-25)
(8.292148e-05 7.63176e-05 1.306966e-23)
(0.0001774447 0.0001587984 -2.934167e-23)
(6.976179e-05 5.737672e-05 2.136229e-23)
(7.523373e-05 7.562458e-05 -1.590274e-23)
(7.193081e-05 7.266548e-05 1.549721e-23)
(7.106095e-05 7.147372e-05 1.440717e-23)
(7.076046e-05 7.08991e-05 -1.324979e-23)
(7.076484e-05 7.070948e-05 0)
(7.012457e-05 7.070969e-05 0)
(6.844759e-05 6.866127e-05 -1.216008e-23)
(6.817851e-05 6.816025e-05 -1.8625e-25)
(6.875847e-05 6.869887e-05 -1.144815e-23)
(6.92573e-05 6.874371e-05 2.269416e-23)
(7.154444e-05 7.117816e-05 -1.747516e-25)
(7.116214e-05 7.144762e-05 1.522609e-25)
(7.044736e-05 7.020479e-05 0)
(7.113386e-05 7.127419e-05 -1.810061e-25)
(7.154202e-05 7.097244e-05 -2.111482e-23)
(7.131778e-05 7.114178e-05 0)
(7.288099e-05 7.289937e-05 1.033168e-23)
(7.283981e-05 7.255332e-05 1.651163e-25)
(7.4614e-05 7.389845e-05 1.069859e-23)
(7.774635e-05 7.709661e-05 0)
(7.814831e-05 7.835983e-05 -9.500237e-24)
(7.702009e-05 7.686197e-05 -1.578622e-25)
(8.063266e-05 7.920283e-05 -1.063617e-23)
(8.567175e-05 8.40276e-05 -1.645417e-25)
(8.832787e-05 8.83582e-05 1.743401e-25)
(8.766875e-05 8.658783e-05 1.686057e-25)
(9.447196e-05 9.272726e-05 -1.1313e-23)
(9.746368e-05 9.691549e-05 0)
(9.848066e-05 9.698433e-05 6.628328e-26)
(0.0001057 0.0001036249 -1.214577e-23)
(0.0001145719 0.0001102928 -1.228719e-25)
(0.0001372656 0.0001333165 -1.583418e-23)
(0.0001380071 0.0001218126 -7.392991e-24)
(0.000269363 0.0002290719 3.441553e-23)
(0.0002733229 -0.0002350056 3.321839e-23)
(0.0001397798 -0.0001213156 -3.317771e-25)
(0.0001339783 -0.0001307782 2.101003e-25)
(0.0001161212 -0.0001123628 -1.946912e-26)
(0.000107432 -0.000105338 -1.239907e-25)
(9.945971e-05 -9.779325e-05 2.437373e-25)
(9.815239e-05 -9.745007e-05 -1.090945e-23)
(9.460913e-05 -9.275092e-05 -1.712967e-25)
(8.762957e-05 -8.650518e-05 3.294619e-25)
(8.816386e-05 -8.81671e-05 -3.233031e-25)
(8.544767e-05 -8.379297e-05 -6.248397e-27)
(8.039092e-05 -7.896683e-05 1.079346e-23)
(7.681455e-05 -7.666351e-05 1.583415e-25)
(7.79509e-05 -7.815107e-05 -3.180883e-25)
(7.749353e-05 -7.679992e-05 -1.046124e-23)
(7.418759e-05 -7.340609e-05 1.071795e-23)
(7.222967e-05 -7.186608e-05 1.056043e-23)
(7.196423e-05 -7.191264e-05 -1.623455e-25)
(7.031779e-05 -7.019182e-05 1.637269e-25)
(7.077718e-05 -7.025854e-05 1.040805e-23)
(7.046156e-05 -7.065767e-05 -2.728933e-27)
(7.000821e-05 -6.982719e-05 -2.051035e-27)
(7.084727e-05 -7.116113e-05 1.067223e-23)
(7.130776e-05 -7.098268e-05 -1.777505e-25)
(6.917639e-05 -6.870754e-05 -1.122332e-23)
(6.879364e-05 -6.876691e-05 1.768962e-25)
(6.830808e-05 -6.831292e-05 1.170721e-23)
(6.861637e-05 -6.885167e-05 -3.661732e-27)
(7.040785e-05 -7.103688e-05 -1.201833e-23)
(7.116024e-05 -7.111368e-05 1.331543e-23)
(7.11442e-05 -7.128672e-05 -2.041546e-25)
(7.147308e-05 -7.190686e-05 -1.429117e-23)
(7.246277e-05 -7.319928e-05 -1.523854e-23)
(7.558436e-05 -7.603751e-05 -1.606354e-23)
(7.078143e-05 -5.883735e-05 2.087985e-23)
(0.0003306684 4.000729e-05 4.588594e-24)
(0.0001577163 9.161236e-06 1.413863e-25)
(0.0001792689 1.052794e-06 -9.023134e-26)
(0.000160445 1.665775e-06 9.085454e-26)
(0.0001530833 1.5356e-06 -3.656385e-28)
(0.0001437309 5.761893e-07 0)
(0.0001425322 3.967535e-07 0)
(0.0001405767 2.244807e-07 9.695219e-28)
(0.000138211 7.656258e-07 3.724751e-28)
(0.0001324833 1.94133e-08 -1.384612e-26)
(0.0001366442 -1.485787e-07 1.340797e-26)
(0.000133864 -1.321444e-07 -1.20163e-26)
(0.0001359573 -4.335183e-07 8.4772e-27)
(0.0001384441 -6.64767e-08 -1.498789e-26)
(0.0001398126 -2.430727e-07 0)
(0.0001413567 -2.408269e-07 -2.434333e-27)
(0.0001440432 -8.95802e-07 2.087955e-27)
(0.0001503224 -8.090534e-07 -6.780571e-27)
(0.0001555454 -7.727903e-07 -7.173602e-27)
(0.000157732 -1.006006e-07 2.926115e-26)
(0.0001581142 -1.257524e-06 -5.450063e-26)
(0.0001718299 -3.619931e-06 9.243847e-26)
(0.0002041665 -1.991626e-06 -1.211616e-25)
(0.0001943985 -1.072103e-05 -2.694917e-29)
(0.0003519529 -2.593616e-05 1.640938e-24)
(5.13061e-05 -0.0002201852 -1.456924e-23)
(1.038285e-05 -2.023205e-05 -1.935916e-24)
(-1.24247e-07 -4.358594e-05 -1.868558e-25)
(1.354488e-06 -2.779106e-05 6.071697e-25)
(6.977859e-07 -2.303249e-05 -1.170998e-24)
(6.008709e-07 -1.812502e-05 5.633613e-25)
(5.890131e-07 -1.475988e-05 5.013841e-25)
(4.294486e-07 -1.079922e-05 -5.021488e-25)
(5.760084e-08 -9.569642e-06 0)
(2.593225e-07 -8.923937e-06 1.778197e-27)
(2.158506e-07 -6.700519e-06 0)
(1.152698e-07 -5.980779e-06 0)
(1.161448e-07 -5.272183e-06 2.057738e-25)
(1.509701e-07 -4.30426e-06 -2.058722e-25)
(8.364444e-08 -3.500081e-06 0)
(6.265424e-08 -3.150826e-06 -9.767449e-26)
(6.016715e-08 -2.638414e-06 1.258354e-27)
(6.293414e-08 -2.292638e-06 9.522398e-26)
(8.63887e-08 -1.799626e-06 -4.703945e-26)
(6.989044e-08 -1.220561e-06 0)
(3.844431e-08 -9.619709e-07 4.637804e-26)
(6.673745e-08 -6.390747e-07 -4.646114e-26)
(3.887043e-08 -2.06996e-07 -2.302286e-26)
(2.638673e-08 -5.897591e-08 1.728203e-26)
(2.257721e-08 1.357083e-07 -5.931262e-27)
(2.235859e-08 2.751649e-07 -2.016904e-26)
(3.076644e-08 4.340138e-07 2.878862e-26)
(3.600047e-08 6.998552e-07 0)
(3.825142e-08 9.029044e-07 -6.982757e-26)
(4.784353e-08 1.231538e-06 4.651328e-26)
(3.542808e-08 1.473615e-06 2.343803e-26)
(9.358854e-08 1.781464e-06 1.427874e-25)
(7.55765e-08 2.562167e-06 -2.877821e-25)
(8.195117e-08 2.867278e-06 -9.921181e-26)
(1.248483e-07 3.743074e-06 1.022904e-25)
(4.47073e-08 4.308978e-06 -1.586866e-27)
(4.942986e-08 4.504384e-06 -1.628911e-27)
(9.633049e-08 4.991263e-06 -2.173451e-25)
(1.870024e-07 5.882468e-06 -1.576324e-27)
(2.171036e-07 7.230663e-06 2.23804e-25)
(2.679861e-07 8.923375e-06 0)
(3.622086e-07 1.048186e-05 0)
(5.900497e-07 1.433377e-05 0)
(5.218388e-07 1.707714e-05 4.193953e-27)
(8.07287e-07 2.277421e-05 0)
(1.154116e-06 2.618363e-05 -4.842872e-27)
(4.157764e-07 4.428314e-05 6.976349e-25)
(9.244855e-06 1.958128e-05 -1.940489e-24)
(5.159051e-05 0.0002143022 1.490942e-23)
(0.0003650205 2.588036e-05 0)
(0.0001902257 1.251461e-05 -3.617251e-27)
(0.0002002822 1.77366e-06 2.746386e-26)
(0.0001684384 2.700415e-06 0)
(0.0001653228 7.352653e-07 -1.414584e-26)
(0.0001578599 1.614736e-06 9.700562e-27)
(0.0001494973 3.65277e-07 5.897627e-27)
(0.0001508239 7.371099e-07 -7.607383e-27)
(0.0001417367 9.952966e-07 0)
(0.0001391337 -6.365629e-08 0)
(0.0001402033 2.806901e-07 -1.075921e-26)
(0.0001368324 4.87405e-07 1.072544e-26)
(0.0001323935 2.64276e-07 0)
(0.000134371 -4.746059e-07 -1.410877e-26)
(0.00013973 -2.289591e-07 0)
(0.0001379668 1.866869e-07 -1.520592e-26)
(0.0001369061 5.764402e-08 1.519423e-26)
(0.0001377589 -6.130827e-07 1.043571e-27)
(0.0001456188 -9.277775e-07 -5.311829e-27)
(0.0001478119 -3.192942e-07 -9.429837e-28)
(0.0001529307 -1.149803e-06 6.235663e-27)
(0.0001602164 -1.869332e-06 0)
(0.0001802121 -4.802489e-07 3.273867e-26)
(0.0001525602 -8.848439e-06 -5.463395e-25)
(0.0003264797 -4.032927e-05 8.53496e-24)
(0.0004957751 4.717288e-05 -1.420219e-24)
(0.00028434 2.459013e-05 9.850007e-26)
(0.0002854589 4.687843e-06 -1.127078e-25)
(0.000242817 5.318514e-06 -9.82394e-26)
(0.0002363899 1.666937e-06 4.945162e-26)
(0.0002259813 3.267076e-06 0)
(0.000213921 8.866642e-07 0)
(0.0002147655 1.46965e-06 -3.789206e-27)
(0.0002026443 2.03999e-06 4.686829e-27)
(0.0001982054 -3.419011e-08 -1.780164e-26)
(0.0001999383 5.246498e-07 1.261602e-26)
(0.0001952823 9.178944e-07 0)
(0.000189533 4.699485e-07 -2.52613e-26)
(0.0001924867 -9.126184e-07 3.914193e-26)
(0.0001994917 -3.993318e-07 -2.276831e-26)
(0.0001971349 4.048316e-07 0)
(0.0001954133 4.813811e-08 0)
(0.0001975523 -1.349676e-06 -9.807308e-28)
(0.0002086394 -1.906004e-06 -1.768681e-28)
(0.0002122426 -7.912436e-07 -6.717652e-27)
(0.0002204032 -2.57844e-06 -3.206607e-26)
(0.0002326173 -3.67721e-06 -1.428743e-25)
(0.0002572585 -2.564916e-06 4.02292e-26)
(0.0002409111 -2.043479e-05 8.744193e-25)
(0.0004392868 -7.213506e-05 -2.118767e-24)
(9.37596e-05 -0.0002986695 -1.573656e-23)
(2.458556e-05 -6.12723e-05 0)
(2.073423e-06 -6.590385e-05 6.491876e-25)
(2.818123e-06 -4.490901e-05 1.427791e-24)
(1.684155e-06 -3.588484e-05 -1.432905e-24)
(1.334321e-06 -2.796129e-05 6.014012e-25)
(1.236516e-06 -2.273577e-05 -6.319641e-25)
(9.452638e-07 -1.69837e-05 5.593089e-25)
(2.035532e-07 -1.466217e-05 -5.431569e-25)
(5.383343e-07 -1.347789e-05 0)
(4.598553e-07 -1.030668e-05 0)
(2.574121e-07 -9.121371e-06 0)
(2.525969e-07 -8.015783e-06 -7.596585e-27)
(3.143247e-07 -6.550327e-06 0)
(1.833609e-07 -5.379966e-06 -7.315674e-27)
(1.401844e-07 -4.780254e-06 -2.289543e-25)
(1.280635e-07 -4.002172e-06 6.776431e-25)
(1.35266e-07 -3.476746e-06 0)
(1.79388e-07 -2.725687e-06 -5.474079e-26)
(1.465437e-07 -1.902775e-06 1.651757e-25)
(8.472397e-08 -1.485329e-06 0)
(1.377742e-07 -1.008215e-06 -2.721782e-26)
(8.584487e-08 -3.745258e-07 0)
(5.972082e-08 -1.116351e-07 2.024416e-26)
(5.102498e-08 1.914337e-07 -1.328494e-26)
(5.023914e-08 4.226609e-07 6.751149e-27)
(6.767216e-08 6.742098e-07 -4.068172e-26)
(7.87181e-08 1.084767e-06 5.413171e-26)
(8.333931e-08 1.410429e-06 1.366114e-25)
(1.018782e-07 1.896114e-06 -2.1912e-25)
(8.079155e-08 2.293526e-06 -1.202377e-27)
(1.927169e-07 2.762106e-06 1.104881e-25)
(1.608698e-07 3.874702e-06 -2.26558e-25)
(1.819368e-07 4.412668e-06 2.286733e-25)
(2.585083e-07 5.704334e-06 2.329642e-25)
(1.029924e-07 6.541394e-06 -2.327813e-25)
(1.209751e-07 6.938392e-06 3.814968e-27)
(2.175617e-07 7.764798e-06 0)
(4.008631e-07 9.102259e-06 5.170912e-25)