/*--------------------------------*- C++ -*----------------------------------*\
| =========                 |                                                 |
| \\      /  F ield         | OpenFOAM: The Open Source CFD Toolbox           |
|  \\    /   O peration     | Version:  2406                                  |
|   \\  /    A nd           | Website:  www.openfoam.com                      |
|    \\/     M anipulation  |                                                 |
\*---------------------------------------------------------------------------*/
FoamFile
{
    version     2.0;
    format      ascii;
    arch        "LSB;label=32;scalar=64";
    class       volVectorField;
    location    "0.34";
    object      U;
}
// * * * * * * * * * * * * * * * * * * * * * * * * * * * * * * * * * * * * * //

dimensions      [0 1 -1 0 0 0 0];

internalField   nonuniform List<vector> 
4562
(
(0.01002914 0.000214002 -3.742959e-26)
(0.009996341 2.364353e-05 0)
(0.01001297 0.0001002078 0)
(0.009993963 2.836382e-05 2.161993e-26)
(0.01039589 0.0001138085 0)
(0.01000439 4.469907e-05 -6.652358e-27)
(0.009786629 0.0001853514 2.506044e-26)
(0.009914642 9.78807e-05 -1.069297e-26)
(0.009927918 4.10559e-05 -1.159952e-25)
(0.009994325 3.093448e-05 1.528784e-26)
(0.009875681 0.0003888282 -3.63118e-25)
(0.0100464 0.0001498135 3.849107e-26)
(0.009943039 0.0001756919 0)
(0.009993745 9.848707e-05 0)
(0.01074842 0.0004898709 1.760237e-24)
(0.01003142 2.072032e-05 -4.317849e-27)
(0.009851195 6.685011e-05 1.603038e-25)
(0.01008042 0.0001096303 -7.904688e-26)
(0.009711077 0.0001540528 4.140404e-25)
(0.01002186 0.0001216472 0)
(0.009998679 0.001029274 1.594849e-24)
(0.0099658 0.0001041934 0)
(0.009840875 0.0003259749 0)
(0.01001 2.896267e-05 -8.223928e-28)
(0.01001122 4.345637e-05 0)
(0.00996904 0.000252247 1.509543e-25)
(0.009909958 7.709893e-05 0)
(0.009951418 0.0001134731 -1.923978e-25)
(0.009693102 0.000657343 0)
(0.01028812 0.0005675841 0)
(0.01000753 0.000200992 3.948808e-26)
(0.01001414 3.274191e-05 -5.145113e-28)
(0.009997225 8.271697e-05 3.900014e-26)
(0.009826368 0.0001852495 2.89997e-25)
(0.01012918 0.0002321128 2.194173e-25)
(0.01007774 5.041903e-05 -2.614833e-26)
(0.009774299 0.0007604563 -6.986573e-25)
(0.009952436 4.245255e-05 0)
(0.01001995 2.856592e-05 9.620054e-27)
(0.01004781 7.98254e-05 2.027778e-26)
(0.00986713 5.660588e-05 0)
(0.009981552 1.72421e-05 -9.267836e-28)
(0.0098545 0.0001124464 -2.709712e-25)
(0.009990767 4.58481e-05 -2.025115e-26)
(0.01000815 2.774655e-05 1.496256e-26)
(0.009874681 0.0001043005 -5.681025e-25)
(0.01000891 4.345078e-05 0)
(0.009985635 1.850548e-05 0)
(0.009980441 3.321082e-05 0)
(0.01007329 0.0002947447 -1.314927e-26)
(0.009981394 4.050995e-05 0)
(0.009995135 0.0001954748 2.568761e-26)
(0.010118 5.768378e-05 2.362698e-25)
(0.009794451 0.0002024559 0)
(0.01002742 4.571262e-05 -3.549845e-26)
(0.01065973 0.0006215921 0)
(0.009802125 0.0001870219 1.898422e-25)
(0.00972885 0.0002651376 7.762829e-25)
(0.009824757 0.0001603957 -7.009319e-25)
(0.01057901 0.0004738671 0)
(0.01000183 6.22014e-05 1.364139e-27)
(0.009802681 0.0005763349 -5.030945e-25)
(0.009887569 0.000170351 -2.641467e-25)
(0.01005569 0.0002134292 -6.626602e-26)
(0.009884647 5.187877e-05 3.45695e-26)
(0.01036617 0.0007055728 1.362018e-25)
(0.009967537 0.0001662872 -1.305821e-25)
(0.009970348 0.0002386949 2.995413e-26)
(0.01007031 0.0002781408 0)
(0.009982854 0.0001002681 0)
(0.009753479 0.0003071085 0)
(0.009960081 5.905786e-05 -6.68575e-26)
(0.01022562 0.0003658795 0)
(0.009930012 4.888952e-05 -5.538227e-26)
(0.009866511 0.0001296197 2.134515e-25)
(0.01032932 0.0003865568 1.608648e-25)
(0.01002241 0.0001813905 2.144458e-26)
(0.009938715 7.690146e-05 -1.575868e-25)
(0.01002938 0.0002890014 0)
(0.01062247 0.0003187548 8.196325e-25)
(0.01057939 0.0001153096 2.224026e-24)
(0.01018837 0.0001685206 -2.123947e-25)
(0.01026512 0.0009053133 3.48121e-25)
(0.009982898 5.903878e-05 0)
(0.009833387 0.0001919058 0)
(0.009973511 2.858095e-05 -2.368555e-26)
(0.01001571 2.628351e-05 3.057708e-27)
(0.009968049 9.473202e-05 -6.912945e-26)
(0.009925843 8.257407e-05 0)
(0.009976374 0.0001619263 -7.554957e-26)
(0.00995911 5.444351e-05 0)
(0.01001103 2.063352e-05 0)
(0.009938128 0.0001018687 -6.312978e-26)
(0.01000089 8.663068e-05 -1.958539e-26)
(0.01005846 0.0004413312 0)
(0.009917227 0.0004815306 0)
(0.01001333 2.395266e-05 0)
(0.009945408 3.635001e-05 1.423876e-26)
(0.009683432 0.0004480624 0)
(0.009811037 0.0002268491 2.705387e-26)
(0.009989303 0.0001175966 3.218686e-26)
(0.009734508 0.0004303179 2.853162e-25)
(0.009989389 6.117337e-05 6.740372e-26)
(0.01005295 0.001068412 0)
(0.01000288 0.0001802074 2.218772e-26)
(0.01001625 0.0005614648 0)
(0.009922461 8.704683e-05 -8.170707e-26)
(0.009996958 0.0001132906 0)
(0.00999406 5.636977e-05 1.201801e-26)
(0.01003704 3.201589e-05 0)
(0.009939633 0.000238037 1.035188e-25)
(0.01012768 0.000403752 -4.343118e-27)
(0.01000793 0.0001716234 -2.272691e-26)
(0.00974098 0.0001626517 0)
(0.01038587 0.0007359857 0)
(0.009982226 1.688396e-05 2.042633e-26)
(0.01051591 0.0002957988 -9.341767e-25)
(0.009929508 0.0001137157 1.816618e-25)
(0.009735203 0.000567691 -3.989637e-25)
(0.009960825 0.000137129 -2.03015e-25)
(0.01014852 0.0002346083 -4.687058e-25)
(0.009902684 5.142743e-05 1.686086e-25)
(0.00997513 3.418876e-05 -1.814872e-26)
(0.009991691 5.109397e-05 -4.253257e-27)
(0.009881594 0.0002234166 2.162043e-25)
(0.009993821 7.934589e-05 -4.270788e-26)
(0.00996957 7.791846e-05 -4.099839e-26)
(0.009996042 6.313647e-05 8.411662e-27)
(0.01006754 0.0004309851 -3.383752e-26)
(0.01005876 0.0003213125 3.237652e-26)
(0.01006073 0.0001711653 -3.104803e-27)
(0.009977792 3.90673e-05 -2.375074e-26)
(0.01001979 0.0005492622 -9.101405e-26)
(0.009997053 2.093563e-05 -2.701204e-27)
(0.01001253 0.0001800434 -1.23913e-26)
(0.01056854 0.0006610406 -3.3061e-25)
(0.009767898 0.0002756923 0)
(0.009974947 7.807834e-05 -6.520059e-26)
(0.01017475 9.01502e-05 0)
(0.01000159 2.721309e-05 -1.939804e-28)
(0.01026341 0.0008114357 0)
(0.01022166 0.0002033325 -1.982445e-25)
(0.01001899 4.663981e-05 -1.60343e-26)
(0.01061766 0.0007428101 4.507347e-26)
(0.009975301 0.0003067088 0)
(0.00999909 0.0001059906 0)
(0.009842244 0.0002446028 0)
(0.009973274 5.758742e-05 -1.953539e-26)
(0.0100684 0.0002172638 -6.922157e-27)
(0.01012996 7.449358e-05 -4.829359e-25)
(0.009994667 4.443718e-05 0)
(0.00984736 0.0005476684 0)
(0.009988421 9.949642e-05 0)
(0.01005671 0.0001296098 7.217525e-26)
(0.01000134 4.283365e-05 0)
(0.01013643 0.0002151458 1.503298e-25)
(0.009965604 4.002083e-05 0)
(0.01049064 0.0007892468 6.616708e-25)
(0.01001004 0.0001368048 -1.919227e-26)
(0.009983073 3.731315e-05 -3.794092e-26)
(0.009956508 0.000237345 -4.104048e-25)
(0.01032954 0.0003675615 -2.287984e-25)
(0.01031507 0.0006091386 0)
(0.009979572 1.912721e-05 -6.474173e-27)
(0.00996865 5.299379e-05 -5.805286e-26)
(0.0106777 0.0006110572 1.90945e-25)
(0.0100176 7.548207e-05 -1.201664e-26)
(0.01000999 3.445215e-05 -1.030517e-26)
(0.009820604 0.0003188526 -2.424642e-25)
(0.01015736 0.0002668906 1.19869e-25)
(0.01005409 0.00102333 -2.97465e-24)
(0.01003516 9.994171e-05 -1.863338e-27)
(0.01012963 0.0004655177 1.534675e-25)
(0.01001212 8.782355e-05 0)
(0.01000053 0.0004991804 -3.167316e-25)
(0.01001292 0.0001327349 1.81098e-26)
(0.009980196 2.391106e-05 2.429252e-27)
(0.009973486 3.504311e-05 4.632905e-26)
(0.009924282 0.0002074259 8.977337e-27)
(0.009947704 5.24871e-05 0)
(0.01000218 3.08513e-05 0)
(0.009862043 0.0001741657 4.003752e-25)
(0.009836706 0.0002370355 3.685242e-25)
(0.01074479 0.000460384 -1.296411e-25)
(0.01007859 0.0004539362 0)
(0.01000108 0.0001486533 -1.314268e-26)
(0.01003083 0.0006475771 -4.75304e-25)
(0.0100331 0.0001955289 -1.089239e-26)
(0.009955595 3.872667e-05 -9.283135e-27)
(0.01022035 0.0006343668 0)
(0.01001124 0.0007273494 0)
(0.01018668 0.0006983691 6.731991e-25)
(0.01013582 0.0002464032 0)
(0.01000498 7.702423e-05 -2.487138e-28)
(0.01006441 0.0004876015 0)
(0.009945912 5.382541e-05 -1.525267e-25)
(0.009788598 0.000108185 1.714918e-25)
(0.009820742 0.0002279932 3.943422e-25)
(0.01015164 0.0002765348 -2.749352e-26)
(0.009990596 3.480097e-05 7.664317e-27)
(0.009975118 5.222607e-05 4.859762e-26)
(0.009909121 0.0002438649 0)
(0.01002591 0.0001674848 0)
(0.01015885 0.0005478554 2.275978e-25)
(0.00981621 0.0004793965 -2.455802e-25)
(0.01001012 6.82911e-05 0)
(0.01043553 0.0005373752 -2.42131e-25)
(0.01052269 0.000677322 -8.918664e-26)
(0.01010805 0.000246288 2.428521e-25)
(0.009922409 6.334646e-05 1.20995e-25)
(0.01001078 3.083141e-05 -1.902671e-27)
(0.009915277 0.0005550963 0)
(0.009975657 2.781709e-05 -2.230012e-26)
(0.01001452 4.801636e-05 -5.709759e-27)
(0.01027189 0.0005503537 0)
(0.01050179 0.0006758593 -5.174581e-26)
(0.009993327 6.00766e-05 0)
(0.009993661 2.261285e-05 -2.782641e-28)
(0.01002257 0.0002013468 0)
(0.01053461 0.0007989721 8.378594e-26)
(0.009998931 6.00158e-05 -1.662885e-26)
(0.01042402 0.0009209795 1.672285e-24)
(0.01015519 0.0003279912 0)
(0.01002509 4.529819e-05 1.856828e-26)
(0.00986246 0.000337414 0)
(0.009866915 0.000214529 -8.027291e-26)
(0.009947298 0.0004937055 -1.59627e-25)
(0.009904077 0.0003582374 7.149784e-26)
(0.01030277 0.0007776524 0)
(0.009893018 8.064086e-05 0)
(0.009996641 2.453093e-05 -1.299888e-28)
(0.009868356 0.0002302094 1.678507e-25)
(0.01007765 0.0001599205 9.25431e-26)
(0.00990804 0.0002813659 3.060298e-25)
(0.009950152 3.574529e-05 5.712953e-26)
(0.0097635 0.0002638895 0)
(0.009788037 0.0001644918 -1.647043e-25)
(0.01042448 0.0007752109 -5.881232e-26)
(0.01010016 0.000237998 0)
(0.009913684 4.643997e-05 0)
(0.009899271 4.958502e-05 -3.188827e-25)
(0.009948172 0.0001108249 -1.192026e-25)
(0.01010056 0.0005145358 0)
(0.009985616 0.0001443478 9.883099e-26)
(0.0100277 0.0001337532 -7.237255e-27)
(0.01059029 0.0005458661 -2.232606e-25)
(0.009947405 7.818812e-05 5.507176e-26)
(0.009824892 0.0004231017 -3.004374e-25)
(0.01002247 0.0001951291 -3.644999e-27)
(0.00997669 2.680863e-05 -3.653031e-27)
(0.009997969 2.622424e-05 1.292004e-26)
(0.00997958 9.580919e-05 -1.119226e-25)
(0.009989684 7.720262e-05 2.393146e-26)
(0.009981064 5.598607e-05 2.605338e-26)
(0.01001901 6.060747e-05 3.911259e-26)
(0.01002764 9.299973e-05 -2.045933e-26)
(0.009999472 4.541281e-05 0)
(0.009879223 0.0001515293 -6.682394e-25)
(0.009895931 5.15627e-05 1.794993e-25)
(0.009837395 0.0006288115 -6.082351e-25)
(0.01010504 0.0007101444 -3.364261e-25)
(0.009941715 4.714636e-05 5.237539e-27)
(0.0100696 0.0001658747 6.719642e-26)
(0.01000776 8.477148e-05 1.493713e-27)
(0.01030409 0.0004351163 -5.438328e-26)
(0.01001241 0.0001737981 2.026598e-26)
(0.01000398 2.297794e-05 0)
(0.010058 0.000224991 3.875875e-26)
(0.01002063 4.396948e-05 6.585518e-27)
(0.01001403 2.252844e-05 5.569412e-27)
(0.009985679 2.343603e-05 0)
(0.009967208 9.021148e-05 6.295297e-26)
(0.009923898 0.0001545613 1.073124e-25)
(0.01018592 0.0001895646 -2.202636e-25)
(0.01033107 0.0002322398 -4.318082e-28)
(0.009991903 2.667434e-05 0)
(0.01000946 3.907034e-05 -4.476089e-28)
(0.009996267 4.107569e-05 -1.953225e-26)
(0.01002644 0.0001144843 5.659649e-26)
(0.01049549 0.0004295557 -3.254144e-25)
(0.009965355 0.000191219 1.005989e-25)
(0.01001618 2.217843e-05 2.939618e-27)
(0.009918168 0.0001036729 0)
(0.009952491 0.0001054423 -5.302572e-26)
(0.01016547 0.000847585 3.670902e-25)
(0.01003044 6.613029e-05 -1.0566e-26)
(0.01001712 6.324509e-05 5.803842e-26)
(0.009990101 4.301715e-05 3.036593e-26)
(0.009995854 5.043125e-05 3.902011e-26)
(0.009739981 0.000303601 0)
(0.009989376 0.0002656974 0)
(0.009988392 9.352659e-05 0)
(0.009885516 0.0003659615 -1.289622e-25)
(0.0100976 0.0004856692 0)
(0.009982556 5.099975e-05 -3.074349e-26)
(0.009875295 0.0004080232 3.236922e-25)
(0.009928925 0.0004193922 3.014196e-25)
(0.009996411 7.965128e-05 4.398109e-26)
(0.009777731 0.0006382213 1.616213e-25)
(0.01023324 0.0001260832 -1.755849e-25)
(0.01004451 0.0001039971 6.275266e-26)
(0.009953781 0.0001331925 5.705888e-26)
(0.01003891 0.000261613 -1.623326e-26)
(0.01033976 0.0006403498 0)
(0.01014472 7.457553e-05 4.155027e-26)
(0.009875217 0.0006900108 -4.350852e-25)
(0.00980287 0.0007443386 9.299749e-25)
(0.01001672 5.52434e-05 0)
(0.009920865 0.0001883651 0)
(0.009898043 0.0001997543 1.865216e-25)
(0.009930817 4.443419e-05 -1.647413e-25)
(0.01012224 0.0001810058 -9.84097e-26)
(0.01045433 0.0007334964 0)
(0.009711239 0.0004017757 8.248283e-25)
(0.009947692 0.0002053154 -1.744379e-25)
(0.01004082 0.000132432 -2.110519e-26)
(0.009980744 2.897029e-05 3.547755e-26)
(0.01001873 2.920256e-05 0)
(0.01014969 0.0003623365 8.698844e-27)
(0.009974571 2.292878e-05 1.596401e-26)
(0.009971873 3.046157e-05 3.901588e-26)
(0.01072358 0.0004587462 -2.122672e-24)
(0.009999348 3.789773e-05 3.201337e-28)
(0.009984765 4.782481e-05 0)
(0.009888038 0.0007607772 0)
(0.009933736 0.000115831 -2.582152e-27)
(0.009856149 0.0003565929 0)
(0.009930938 0.0003342496 -2.434393e-25)
(0.009964575 4.194287e-05 1.583229e-26)
(0.009871651 0.0004849576 4.245504e-25)
(0.01002101 8.748203e-05 2.147159e-26)
(0.01006702 8.65871e-05 0)
(0.01001448 0.0001103701 -4.257721e-27)
(0.01002744 0.0001028535 -5.082018e-26)
(0.009693014 0.0002724493 5.650715e-25)
(0.0097056 0.0002647607 -9.07809e-25)
(0.01000778 3.510995e-05 -4.954151e-29)
(0.01007748 0.0005923372 4.309093e-25)
(0.01038854 0.0007132451 0)
(0.010317 0.0008158141 0)
(0.01017609 0.0005360132 -1.399477e-25)
(0.01019542 0.0003979336 0)
(0.01019161 0.0006812576 -4.635922e-25)
(0.009966267 0.0001524167 -6.993125e-26)
(0.009979201 2.701853e-05 0)
(0.009998909 3.133848e-05 -3.518636e-27)
(0.009993961 2.108832e-05 -2.758027e-27)
(0.009924192 0.0001776004 -3.50204e-26)
(0.009770877 0.0004060096 1.098144e-25)
(0.009941816 5.989399e-05 0)
(0.01024031 0.0005706978 1.115475e-25)
(0.009974468 0.0001750594 -1.012113e-25)
(0.01001296 4.574705e-05 1.241632e-27)
(0.009958925 3.739814e-05 1.015253e-25)
(0.01001016 2.059432e-05 0)
(0.009938658 8.025041e-05 8.512256e-26)
(0.009969218 5.851577e-05 0)
(0.009974479 0.0001080183 0)
(0.009878681 8.392564e-05 -1.56854e-25)
(0.009964643 3.822178e-05 -4.360073e-27)
(0.009967399 4.037852e-05 0)
(0.009994488 3.304961e-05 0)
(0.01000822 2.878067e-05 4.756015e-28)
(0.01005755 8.789993e-05 2.89266e-26)
(0.00996689 7.604179e-05 8.418059e-26)
(0.009896018 9.964805e-05 4.150116e-25)
(0.009920895 4.894877e-05 0)
(0.009901959 0.0001301015 1.337976e-25)
(0.009922119 0.000113789 1.32852e-26)
(0.009954857 8.439711e-05 -5.537186e-26)
(0.009856975 7.725173e-05 0)
(0.009830278 9.775512e-05 6.712832e-25)
(0.009847369 8.674756e-05 6.254446e-25)
(0.009886713 0.0005824156 0)
(0.01010328 0.0004100629 3.630483e-26)
(0.01000885 2.363316e-05 0)
(0.009817429 0.0001277308 0)
(0.009995814 0.0009780519 0)
(0.009970623 0.0001382316 0)
(0.009984087 0.0001104179 0)
(0.01000191 5.829879e-05 3.266089e-26)
(0.01004586 0.0002455087 0)
(0.00993478 0.0004603624 0)
(0.01001102 2.759214e-05 -1.921064e-27)
(0.01010338 0.0002944074 8.864854e-27)
(0.009913394 0.0004690057 2.029991e-25)
(0.01011643 0.0007676992 -1.496834e-24)
(0.01000713 2.148608e-05 1.582725e-27)
(0.009981756 6.606834e-05 9.647927e-27)
(0.009956662 7.566028e-05 4.833183e-26)
(0.009963674 8.036302e-05 3.200385e-27)
(0.009965591 6.168313e-05 -1.132178e-26)
(0.009984849 2.042764e-05 0)
(0.01009911 0.0003411121 5.27191e-27)
(0.01040032 0.000206028 1.511184e-24)
(0.01030151 0.000280199 7.227906e-25)
(0.009778147 0.0001688874 -6.004461e-25)
(0.009703525 0.0003838457 7.283311e-25)
(0.009989494 4.060884e-05 2.474085e-26)
(0.0097382 0.0001138508 1.174598e-25)
(0.01011666 0.0007282051 -8.812941e-27)
(0.009990055 0.001118077 1.887445e-24)
(0.009827983 0.0001050349 -5.10232e-25)
(0.01003797 0.0001642062 2.871819e-26)
(0.01064874 0.0004560623 0)
(0.01005314 0.0002688546 0)
(0.01024294 0.001050953 0)
(0.009695487 0.0002890884 5.698535e-25)
(0.009920791 0.001003243 0)
(0.009994296 6.474078e-05 0)
(0.01000915 0.0002556416 0)
(0.01000468 9.011656e-05 0)
(0.01002382 1.181111e-05 0)
(0.009980094 0.0002198292 6.928996e-27)
(0.01000326 0.0002697324 -8.636038e-27)
(0.01000055 3.558167e-05 0)
(0.009804076 0.0001117925 -4.538409e-27)
(0.00998632 8.506943e-05 3.41689e-26)
(0.01000903 8.760646e-05 5.084081e-27)
(0.009982965 0.0001034431 -5.289987e-26)
(0.009957729 6.255322e-05 0)
(0.009940003 3.855438e-05 -1.251598e-26)
(0.009817255 9.45552e-05 0)
(0.009878261 0.0001373151 -1.480445e-26)
(0.00999043 1.921489e-05 5.415501e-26)
(0.009991441 0.0001370371 -2.68494e-26)
(0.01000165 4.160505e-05 -8.294767e-30)
(0.009868363 0.0001069935 8.031155e-26)
(0.009887604 7.075818e-05 -6.688582e-26)
(0.009941155 6.200256e-05 0)
(0.009950987 4.460444e-05 0)
(0.009913307 0.0001291161 0)
(0.009810688 0.0001243197 -9.970343e-26)
(0.009885642 6.128195e-05 0)
(0.009898703 6.76743e-05 0)
(0.01005613 5.618127e-05 7.932939e-26)
(0.01001586 3.851401e-05 1.016611e-26)
(0.009984952 5.58781e-05 1.429166e-26)
(0.009719839 0.0002462699 0)
(0.009902974 0.0002293798 8.586964e-26)
(0.01000803 0.0001031754 0)
(0.01001039 5.576461e-05 -7.394096e-27)
(0.0097471 0.0004413383 0)
(0.009987805 0.0003899235 1.445233e-25)
(0.01070416 0.0005334185 0)
(0.009974964 3.268027e-05 3.432388e-27)
(0.01032361 0.0008540052 0)
(0.009997658 2.852184e-05 0)
(0.009921326 6.064345e-05 -1.403533e-25)
(0.0099891 5.896501e-05 1.635011e-26)
(0.00990325 0.0001501099 0)
(0.01002444 1.634011e-05 0)
(0.01004365 0.0004389557 -2.315957e-26)
(0.01013846 0.000383397 -7.725702e-26)
(0.01001112 5.384927e-05 -7.116083e-28)
(0.009961587 3.620658e-05 -4.796437e-26)
(0.01058571 0.0007877807 -6.081692e-26)
(0.009846781 0.0001392636 -5.902556e-26)
(0.009837355 0.00103197 9.098476e-25)
(0.01006788 0.000123452 7.442182e-26)
(0.010497 0.0005704879 -5.833099e-25)
(0.01000288 5.711185e-05 -4.449196e-26)
(0.009940708 8.682192e-05 1.090484e-25)
(0.009737308 0.0003303576 -5.377867e-25)
(0.009721638 0.0002864313 0)
(0.009981683 2.710453e-05 0)
(0.009992339 2.440965e-05 5.761374e-27)
(0.009995544 6.055016e-05 3.187636e-26)
(0.01049333 0.0006573611 -2.422427e-27)
(0.009912418 6.052515e-05 0)
(0.009974009 6.544908e-05 -1.03692e-25)
(0.009970931 0.001053367 0)
(0.009941865 3.765991e-05 1.263557e-25)
(0.009952817 3.223785e-05 0)
(0.01041609 0.0003264866 -7.768263e-25)
(0.009925895 0.0001159106 -1.289626e-26)
(0.009958543 0.0001438663 0)
(0.009946373 0.0001726263 0)
(0.009905315 0.0002090775 2.109227e-25)
(0.009937446 0.0002248606 1.021912e-25)
(0.01001506 0.0001579938 -3.734186e-26)
(0.01002778 0.0004947801 2.097212e-25)
(0.009924815 0.0002322721 -2.299232e-25)
(0.0105525 0.000353473 0)
(0.01006517 0.0003283463 -2.421166e-26)
(0.01022772 0.0002997168 -3.491629e-25)
(0.01025994 0.0003919009 1.437124e-26)
(0.009937442 8.586506e-05 -5.472447e-26)
(0.009914424 0.0001014411 0)
(0.01002132 9.36548e-05 -1.641161e-26)
(0.01000562 2.364052e-05 1.031602e-27)
(0.00999801 2.181562e-05 2.166202e-27)
(0.01001495 0.0001170896 1.137019e-26)
(0.009876649 0.0001576464 -3.707751e-25)
(0.009927298 0.0007216068 0)
(0.01003762 0.000120538 -2.600031e-26)
(0.00999916 0.000216789 -6.300643e-26)
(0.009979867 2.284032e-05 3.502684e-28)
(0.01036655 0.0006871109 -1.527487e-25)
(0.01029319 0.0005910666 0)
(0.01030256 0.0005514738 1.170231e-25)
(0.01020451 0.0004337055 0)
(0.01020804 0.0005320323 -2.124953e-27)
(0.01009799 0.0005270055 1.467514e-26)
(0.01003877 0.0006314204 8.270158e-25)
(0.01015911 0.0007035001 -1.751878e-25)
(0.01040405 0.000549876 0)
(0.01020542 0.0007116206 -2.000815e-25)
(0.01038416 0.0006622249 -6.395827e-27)
(0.01052139 0.0007453099 1.41459e-25)
(0.01026976 0.0005176733 0)
(0.01017677 0.0005250893 1.215163e-25)
(0.0101487 0.0004702402 0)
(0.0101457 0.0005021724 1.11263e-25)
(0.009939233 5.339463e-05 7.883004e-27)
(0.01011027 0.0003719708 -9.012003e-26)
(0.01033192 0.000206016 -3.941081e-25)
(0.009946497 4.613085e-05 0)
(0.01035011 0.0003577855 0)
(0.0100345 7.793944e-05 0)
(0.01002086 2.604527e-05 9.99859e-28)
(0.009954925 0.0005530681 0)
(0.01012678 0.0003925369 2.945638e-27)
(0.009934829 0.0003511909 2.047372e-25)
(0.01003362 0.0001207524 0)
(0.009872782 0.0001669745 0)
(0.01040579 0.0008505185 -2.733563e-25)
(0.01009798 6.881044e-05 0)
(0.01001823 5.684044e-05 0)
(0.009828076 8.550639e-05 0)
(0.009724353 0.0001014641 2.220758e-25)
(0.009856417 0.0007342917 2.881625e-26)
(0.009878048 6.741191e-05 -1.27877e-25)
(0.009941864 0.0005198974 -3.245689e-25)
(0.009995707 3.993092e-05 -2.248652e-30)
(0.009948526 0.0002614103 0)
(0.009933839 0.0001401956 2.137399e-25)
(0.01011091 0.0004180039 -3.618892e-26)
(0.009959396 0.0003904656 -2.527105e-25)
(0.01000184 0.0003043642 1.085686e-25)
(0.01038266 0.0002541729 8.198719e-25)
(0.009928447 6.143718e-05 0)
(0.009917929 5.994044e-05 0)
(0.009999981 4.806297e-05 1.119777e-26)
(0.01003457 4.167893e-05 -3.357806e-26)
(0.009950996 7.420544e-05 4.023395e-26)
(0.009849284 6.069029e-05 -1.369754e-25)
(0.009899286 0.0002735637 -3.312483e-25)
(0.00988971 0.0002232173 -8.148764e-25)
(0.009732984 0.0001456544 0)
(0.009748615 0.0001123096 8.194131e-25)
(0.009718127 0.0002069189 -1.479343e-25)
(0.009937126 0.0002063534 -8.729548e-26)
(0.009796228 0.0001702794 2.158185e-25)
(0.009955494 0.0001798573 -5.857309e-26)
(0.009829302 0.0003844556 4.392365e-25)
(0.0099362 5.005911e-05 0)
(0.01001817 2.650653e-05 1.301658e-26)
(0.01018433 0.000377714 0)
(0.01005081 0.0001979802 7.724721e-26)
(0.009926204 0.0002471997 1.910317e-25)
(0.01002095 0.0001296678 -8.18966e-27)
(0.009942653 0.0001824381 0)
(0.0100069 2.080821e-05 2.878955e-27)
(0.01000347 2.768047e-05 5.772223e-27)
(0.0100447 0.0001991136 0)
(0.009975339 4.037375e-05 1.042073e-26)
(0.009960945 5.682736e-05 7.227931e-26)
(0.009961734 7.595218e-05 -8.242934e-26)
(0.01010136 0.0003297087 1.554734e-26)
(0.0105093 0.0005827687 5.053938e-26)
(0.01041016 0.0008712337 0)
(0.00998863 5.323376e-05 0)
(0.009804885 0.0002535278 9.824094e-25)
(0.01004591 3.49524e-06 -5.06105e-26)
(0.01005649 0.0003550328 7.835344e-27)
(0.01005816 0.0002892536 -8.843076e-26)
(0.01004145 0.0002179604 1.211724e-26)
(0.009969031 8.091453e-05 -9.502367e-26)
(0.009974708 8.843064e-05 6.206523e-26)
(0.00998835 0.0002125006 5.948502e-26)
(0.009942667 0.0002311698 -9.420301e-26)
(0.009994857 3.527319e-05 0)
(0.009932535 3.301942e-05 0)
(0.009965295 0.0003213226 0)
(0.009984898 3.058913e-05 1.231507e-26)
(0.01000178 2.892453e-05 0)
(0.009846619 8.092183e-05 -2.386946e-25)
(0.01000505 0.0001365418 -2.256916e-26)
(0.00991727 0.0002058366 -3.001736e-25)
(0.009850867 0.0004290241 -5.044494e-26)
(0.01055868 0.0002037058 0)
(0.009783565 0.000364544 -1.338063e-24)
(0.009859099 0.0005726356 7.976343e-25)
(0.01020518 0.0009945166 -1.044371e-24)
(0.01012057 0.0008126215 -2.1651e-24)
(0.01027672 0.0007060077 -5.141838e-25)
(0.01001374 6.940736e-05 2.062692e-27)
(0.01002844 0.0003333639 -4.617579e-25)
(0.009995435 3.408998e-05 0)
(0.009816308 0.0005293543 9.900542e-26)
(0.009783821 0.0005362269 1.208858e-24)
(0.009959466 6.274905e-05 0)
(0.01002473 0.0003779288 -1.232807e-25)
(0.01009247 3.697452e-05 0)
(0.00990508 0.0002928087 -1.875648e-25)
(0.009901618 0.0001099569 0)
(0.01001127 2.105018e-05 -9.326511e-27)
(0.01000573 5.844973e-05 0)
(0.01022511 0.0003296476 -5.610652e-26)
(0.009947247 9.366968e-05 1.709638e-26)
(0.01006295 0.0002113136 1.288926e-26)
(0.01055352 0.0005545134 1.163828e-26)
(0.01056981 0.0005405738 0)
(0.009989795 0.0001892206 0)
(0.009848508 0.0009555184 1.174431e-24)
(0.009929574 0.0002251269 -1.165538e-25)
(0.01027914 0.0002410082 1.035578e-24)
(0.009992916 0.000218347 0)
(0.0100314 7.239283e-05 0)
(0.01005282 0.0001449724 0)
(0.01000592 3.378038e-05 2.082864e-27)
(0.01000319 4.659871e-05 4.279999e-27)
(0.0100118 5.009741e-05 -2.135202e-26)
(0.01001775 8.313271e-05 2.965028e-27)
(0.01004981 3.276395e-05 0)
(0.01002024 1.791903e-05 0)
(0.01001718 2.746164e-05 0)
(0.0100983 0.0002567373 5.729569e-26)
(0.009867883 0.0003588669 6.77311e-25)
(0.009815025 0.0001478725 -3.034509e-25)
(0.009828055 0.0007029631 0)
(0.009994038 4.180734e-05 -1.936037e-26)
(0.009874963 5.244278e-05 -1.95948e-25)
(0.009960258 8.461352e-05 -5.073031e-26)
(0.009804595 0.0004698321 0)
(0.01009381 0.0003245205 6.186142e-27)
(0.00984076 0.000151978 -5.871655e-25)
(0.01003636 0.0006853739 -6.702339e-25)
(0.0100484 0.0007719101 6.360748e-25)
(0.01001356 5.240586e-05 2.141795e-27)
(0.01002401 5.513346e-05 0)
(0.009998731 0.0007052824 6.794706e-25)
(0.009980293 0.0006728777 2.74217e-26)
(0.01002949 7.119268e-05 -7.595303e-27)
(0.01002385 8.356252e-05 0)
(0.009974002 0.0001661767 1.709511e-25)
(0.009982091 2.980229e-05 -4.371135e-26)
(0.009976088 3.18181e-05 -1.192685e-26)
(0.009977227 2.079174e-05 0)
(0.009841685 0.0001596945 3.42146e-25)
(0.009818365 0.0001149873 1.679109e-25)
(0.009834947 0.0001730306 -2.857966e-25)
(0.009831343 0.0001472448 -1.6085e-26)
(0.009979673 0.0001259943 0)
(0.01029709 0.0007174448 0)
(0.009923286 8.055158e-05 0)
(0.009993501 4.834426e-05 -4.716827e-27)
(0.009977956 3.201902e-05 -1.343293e-26)
(0.009995935 0.0001263055 -3.63929e-26)
(0.009832256 0.0002974097 1.315663e-25)
(0.0100275 0.0002680149 2.439586e-26)
(0.01000869 2.234759e-05 -7.723561e-27)
(0.01001423 2.33472e-05 4.133419e-27)
(0.01002258 0.0001065497 0)
(0.01002337 7.621392e-05 1.621255e-28)
(0.01002943 5.479744e-05 0)
(0.01000388 3.315011e-05 0)
(0.01062944 0.000351336 1.252609e-24)
(0.009971957 4.985188e-05 0)
(0.009790539 0.0002206811 -2.147906e-25)
(0.01000808 6.894628e-05 -2.305919e-26)
(0.01001074 6.612865e-05 4.294187e-28)
(0.01003693 3.967063e-05 0)
(0.009978611 0.0002747969 -2.642812e-27)
(0.009750229 0.0001045155 -7.83244e-25)
(0.009987903 1.908761e-05 1.023732e-26)
(0.009986211 1.961875e-05 0)
(0.01041692 0.0004237769 -4.062215e-26)
(0.01039886 0.000486981 2.775055e-25)
(0.009980717 7.048913e-05 6.880674e-26)
(0.009964262 3.184439e-05 -3.106125e-26)
(0.01001783 0.0001035467 6.152118e-28)
(0.01002894 0.0003076201 -6.425245e-26)
(0.01000963 0.0001066966 -1.794712e-26)
(0.009987308 3.676709e-05 1.221296e-26)
(0.01051852 0.0007689326 -3.951036e-25)
(0.009940821 9.623439e-05 -1.355046e-25)
(0.01000511 8.446353e-05 -2.564007e-27)
(0.009996161 8.850626e-05 0)
(0.009988639 9.02251e-05 -4.790724e-27)
(0.009980869 7.416197e-05 -1.901955e-26)
(0.0100119 3.145176e-05 -7.302943e-28)
(0.0103079 0.0004978501 2.245064e-25)
(0.009886077 0.0004669682 -4.769936e-25)
(0.01008688 0.000309114 -5.871116e-26)
(0.01009794 0.0002707272 -8.72968e-26)
(0.009929155 0.0001572071 -1.929179e-25)
(0.009998831 2.068797e-05 -2.985218e-27)
(0.0103336 0.0005085998 1.783139e-25)
(0.009775115 0.0003504578 -9.305088e-27)
(0.01004236 0.0001493695 -6.750879e-26)
(0.0100531 0.0001547202 9.738691e-26)
(0.009992602 2.183165e-05 3.766985e-27)
(0.009997272 3.263967e-05 0)
(0.009926076 6.387859e-05 -1.168843e-25)
(0.01000901 2.737048e-05 -1.244027e-26)
(0.01003185 9.570071e-05 -2.634654e-26)
(0.0100062 2.308477e-05 -2.561719e-28)
(0.01003154 0.0001169194 -2.444494e-26)
(0.009777685 0.0007847346 8.202384e-25)
(0.009852599 0.00065963 -3.346598e-25)
(0.0101782 0.0008110542 -8.136877e-25)
(0.009926557 4.810114e-05 0)
(0.009898267 0.0001925424 -2.160968e-25)
(0.00996413 6.963589e-05 2.545252e-26)
(0.009712507 0.0009782851 0)
(0.009989611 2.394428e-05 0)
(0.01005304 0.0001303751 -6.128896e-27)
(0.01011138 0.0003225911 1.622267e-25)
(0.009926539 0.0001448363 -2.035285e-25)
(0.009935416 0.0001666508 -1.13811e-26)
(0.009908373 0.0001454957 -4.849416e-26)
(0.009728962 0.0005882066 0)
(0.01009643 0.0002447314 -2.555074e-26)
(0.01001201 4.824119e-05 4.714575e-27)
(0.01011841 0.0003270037 -1.071023e-25)
(0.01004609 0.0003616368 -7.334283e-26)
(0.01045063 0.0006110715 0)
(0.01055173 0.000427364 0)
(0.01024046 0.0003503469 3.230224e-25)
(0.01001033 2.314124e-05 0)
(0.009976717 0.0002848372 -1.349315e-25)
(0.01002369 0.0002757156 -2.363333e-26)
(0.009748134 0.0002319937 4.164687e-25)
(0.01058336 0.0002689858 7.891665e-25)
(0.009767656 0.0006259055 0)
(0.009975609 1.925733e-05 2.444262e-27)
(0.01015591 9.332413e-05 4.041261e-25)
(0.01054446 0.0006577499 0)
(0.0105195 0.0003733619 0)
(0.009976369 2.144304e-05 -2.094549e-27)
(0.009859408 8.936929e-05 0)
(0.01000411 2.838045e-05 -3.54642e-27)
(0.009972078 3.432671e-05 3.407607e-27)
(0.01033373 0.0004417825 0)
(0.009846808 0.0005653374 -8.148827e-25)
(0.01019302 0.0002913349 -1.057022e-25)
(0.009944002 3.805775e-05 0)
(0.01028784 0.0003340884 2.02507e-25)
(0.01001486 6.116076e-05 0)
(0.01037582 0.0004634704 6.00751e-25)
(0.009948094 7.479897e-05 -6.703646e-26)
(0.009913403 5.025968e-05 -7.105521e-26)
(0.01002497 7.069734e-05 1.173689e-26)
(0.01003813 0.0001917186 0)
(0.009933732 5.207765e-05 3.022679e-27)
(0.009903043 0.0001693664 -2.409572e-26)
(0.009976797 1.963535e-05 -1.170165e-27)
(0.009950631 4.879713e-05 3.801293e-27)
(0.01001237 3.47103e-05 0)
(0.009940953 4.307667e-05 0)
(0.009891021 0.0001094754 -2.252962e-25)
(0.009901851 6.580053e-05 0)
(0.009905397 8.562469e-05 9.880994e-26)
(0.01002086 4.90936e-05 4.994643e-26)
(0.00979653 0.0002130773 6.057477e-25)
(0.01001763 6.464589e-05 -3.621568e-26)
(0.009844327 0.0002709325 -3.321636e-25)
(0.0100164 4.259766e-05 8.547831e-27)
(0.01022973 9.374672e-05 0)
(0.009928614 0.0003962017 0)
(0.00996543 5.721412e-05 0)
(0.00999784 5.01409e-05 0)
(0.009984436 0.0004746745 -3.566897e-25)
(0.01029071 0.0007389002 0)
(0.01041854 0.0007999049 2.807869e-25)
(0.01030981 0.0007534127 -2.752354e-25)
(0.01021354 0.0007476165 0)
(0.01000772 0.0008311265 -9.943841e-25)
(0.0102289 0.0001799824 -1.407751e-25)
(0.01020776 0.0001614903 5.046043e-25)
(0.00983797 0.0003069539 -2.28593e-25)
(0.01000518 2.08569e-05 -2.801137e-27)
(0.01007491 0.000252819 1.49179e-26)
(0.01002569 0.0001585639 2.748236e-27)
(0.009982233 6.357284e-05 6.107108e-26)
(0.009986304 0.0002384315 1.085615e-25)
(0.01000538 0.0001158214 -8.051857e-27)
(0.01006281 0.0002516608 2.340646e-27)
(0.01000024 4.325235e-05 0)
(0.01029433 0.001006796 8.203715e-25)
(0.01001301 0.0001069376 -2.649141e-27)
(0.01001469 0.0001036374 -6.520035e-28)
(0.009998776 9.567081e-05 0)
(0.01001236 9.368353e-05 0)
(0.009974869 0.0001390907 -1.113112e-27)
(0.01020556 0.000244399 -5.226415e-25)
(0.0102416 0.0003089769 0)
(0.01002919 0.0001052052 6.154753e-26)