/*--------------------------------*- C++ -*----------------------------------*\
| =========                 |                                                 |
| \\      /  F ield         | OpenFOAM: The Open Source CFD Toolbox           |
|  \\    /   O peration     | Version:  2406                                  |
|   \\  /    A nd           | Website:  www.openfoam.com                      |
|    \\/     M anipulation  |                                                 |
\*---------------------------------------------------------------------------*/
FoamFile
{
    version     2.0;
    format      ascii;
    arch        "LSB;label=32;scalar=64";
    class       volScalarField;
    location    "2.92";
    object      p;
}
// * * * * * * * * * * * * * * * * * * * * * * * * * * * * * * * * * * * * * //

dimensions      [0 2 -2 0 0 0 0];

internalField   nonuniform List<scalar> 
217010
(
-84.88295
-24.42861
-33.27024
-32.83808
-28.90349
-25.43543
-26.29195
-25.45893
-24.96268
-25.90687
-24.86625
-23.46398
-24.60432
-24.82603
-19.82704
-11.35783
-12.82026
-14.9774
-25.91488
-37.41623
-44.72582
-47.49339
-57.30744
-60.28386
-60.98954
-82.28282
-79.83768
-49.99569
-40.0098
-55.02767
-80.72911
-106.9111
-123.0611
-128.4707
-124.7718
-113.6624
-98.71412
-79.34538
-55.60679
-30.55276
-7.950084
10.25083
25.22888
37.66533
47.94347
56.86052
62.16835
64.8481
63.97068
65.4467
36.55378
44.84736
48.28766
52.45732
51.98942
50.2423
47.78031
45.18238
43.22387
42.75708
44.35672
47.559
51.29303
53.91514
54.26455
54.21667
54.59124
54.22618
52.87475
51.44618
50.00853
47.76228
45.48711
43.17903
39.54822
34.74443
29.23124
24.68343
22.32644
22.63619
25.55236
28.19266
29.64679
29.12793
26.69027
24.06963
21.58184
19.08646
16.58135
14.11184
11.35112
8.662414
6.095964
3.475463
0.683101
-3.830941
-10.01779
-14.1504
-16.38718
-19.21544
-23.74415
-28.78484
-33.73703
-38.94887
-44.55989
-50.63769
-57.02158
-63.39205
-69.93151
-76.77053
-83.87591
-91.15577
-98.73396
-106.7634
-114.805
-122.6019
-130.4667
-137.9944
-144.8018
-151.1617
-157.0582
-162.3882
-167.1633
-171.3357
-174.5443
-176.9172
-178.628
-179.7219
-179.9145
-179.3506
-178.1897
-176.4729
-174.1699
-171.3587
-168.1109
-164.4282
-160.5694
-156.8633
-153.4964
-150.473
-147.4881
-144.6256
-144.4744
-145.4224
-142.6185
-137.1154
-134.0707
-132.1952
-129.3782
-173.3972
-66.98569
-62.97124
-50.89656
-46.21016
-43.21757
-42.52567
-43.99078
-47.65077
-52.40174
-58.75156
-65.81472
-74.28029
-79.97948
-82.7734
-84.45574
-86.10018
-88.02899
-89.77298
-91.0824
-91.58466
-90.35995
-86.85811
-82.40751
-80.06649
-81.86325
-82.56871
-81.2313
-80.26781
-80.09959
-78.8837
-77.08041
-76.40268
-76.76643
-77.20559
-77.688
-78.26957
-78.73398
-78.13133
-77.71193
-76.18307
-76.74478
-79.06138
-79.13635
-79.989
-77.39223
-84.37579
-85.63389
-86.1464
-78.55699
-155.583
-52.86365
-36.05637
-19.43306
-9.636267
-1.509689
5.133803
10.79361
15.84938
20.23752
24.1748
27.73237
30.9667
33.99815
36.85103
39.51279
41.96833
44.25562
46.44687
48.53744
50.53135
52.43243
54.2317
55.93314
57.59992
59.2247
60.81191
62.33321
63.76736
65.1514
66.51379
67.85817
69.17401
70.42771
71.64554
72.85276
74.0362
75.20614
76.35955
77.5152
78.62709
79.74835
80.82423
81.89024
82.94136
83.98796
85.01491
86.02154
87.03107
88.05961
89.08682
90.08954
91.07475
92.05741
93.06933
94.09533
95.10798
96.12738
97.1573
98.19089
99.2408
100.2952
101.3477
102.4439
103.6305
104.8463
106.0627
107.3127
108.569
109.9116
111.5861
113.9941
111.4597
110.3307
109.4382
108.3775
107.3129
106.3505
105.4522
104.6042
103.8199
103.0606
102.2639
101.4546
100.6679
99.91709
99.18087
98.44136
97.68905
96.93646
96.20405
95.47607
94.73139
93.98383
93.2444
92.48998
91.73981
90.97172
90.17197
89.38102
88.60649
87.82354
87.01864
86.16092
85.35001
84.49088
83.6038
82.71569
81.82165
80.88957
79.93748
78.98107
77.99875
76.96217
75.87594
74.78385
73.6909
72.55351
71.35807
70.11962
68.82028
67.46545
66.06767
64.61168
63.12717
61.53857
59.84232
58.07673
56.1926
54.21094
52.07183
49.75446
47.28638
44.63046
41.66278
38.37723
34.62464
30.48535
25.71467
19.85855
13.20321
1.737351
-6.273636
111.6601
110.4852
109.5658
108.5144
107.4412
106.4615
105.5502
104.6927
103.9008
103.1377
102.3393
101.5266
100.7345
99.97875
99.23912
98.49726
97.74269
96.98707
96.25169
95.5214
94.7748
94.02504
93.28347
92.52725
91.77511
91.00586
90.20464
89.4116
88.63475
87.85034
87.04448
86.18488
85.37299
84.51187
83.62325
82.73372
81.83838
80.90478
79.95142
78.99366
78.0101
76.97184
75.88389
74.79037
73.69618
72.55697
71.35994
70.12005
68.81866
67.46145
66.06116
64.60245
63.11616
61.52311
59.82291
58.05363
56.16398
54.17786
52.03119
49.70578
47.23037
44.56475
41.5848
38.28649
34.5043
30.34276
25.53542
19.63801
12.84446
1.434906
-8.096627
-55.23826
-36.58632
-19.9494
-9.950716
-1.759969
4.938042
10.63209
15.72821
20.13424
24.08641
27.65893
30.90371
33.94414
36.80583
39.4761
41.93889
44.23074
46.42667
48.52182
50.51979
52.42443
54.22748
55.93113
57.59998
59.22697
60.81639
62.34029
63.77624
65.16209
66.5264
67.87279
69.19062
70.44623
71.66563
72.87488
74.06013
75.23219
76.38795
77.54628
78.65968
79.78308
80.86087
81.92919
82.98269
84.03139
85.06053
86.0697
87.08244
88.11406
89.14383
90.14868
91.13684
92.12362
93.1398
94.16971
95.18609
96.2099
97.24439
98.28314
99.33796
100.3973
101.4573
102.5642
103.7606
104.9836
106.2082
107.4652
108.7305
110.1056
111.8589
113.9893
-72.08888
-63.76439
-51.84787
-46.61209
-43.39535
-42.51241
-43.79416
-47.3151
-51.97904
-58.25556
-65.27775
-73.78456
-79.65015
-82.59966
-84.35653
-85.99579
-87.92734
-89.69202
-91.05158
-91.61762
-90.4528
-86.97977
-82.49806
-80.06064
-81.84052
-82.58971
-81.25276
-80.26583
-80.11255
-78.90868
-77.09124
-76.4025
-76.76484
-77.20501
-77.68796
-78.27053
-78.74129
-78.12872
-77.70684
-76.18811
-76.77594
-79.10297
-79.16518
-79.96784
-77.4904
-84.56867
-85.70452
-86.00509
-80.40941
-140.1932
39.50691
43.95552
47.83271
52.22634
52.06764
50.46842
48.05896
45.45227
43.37492
42.71105
44.15112
47.23392
50.99488
53.78398
54.2494
54.1989
54.58268
54.26919
52.97215
51.54012
50.12199
47.89156
45.61484
43.31058
39.72394
34.95259
29.43733
24.83128
22.35391
22.55841
25.43749
28.09987
29.63043
29.15237
26.73746
24.11984
21.63037
19.13197
16.62342
14.15238
11.38781
8.69549
6.128121
3.506115
0.7117379
-3.821117
-10.03277
-14.14275
-16.36127
-19.20672
-23.75236
-28.79805
-33.75448
-38.97477
-44.59538
-50.68687
-57.08359
-63.46325
-70.01787
-76.8743
-83.99358
-91.28692
-98.88758
-106.9448
-115
-122.8063
-130.6807
-138.2286
-145.0355
-151.4035
-157.2952
-162.6051
-167.3645
-171.5118
-174.6876
-177.0343
-178.7235
-179.7902
-179.9409
-179.3391
-178.1422
-176.371
-174.0101
-171.146
-167.8463
-164.1193
-160.2461
-156.5462
-153.1933
-150.1737
-147.2107
-144.4782
-144.4861
-145.308
-142.1425
-136.6546
-133.7955
-132.1214
-132.2396
-160.49
-73.59214
-25.91979
-33.39067
-32.95335
-29.07353
-25.47438
-26.29311
-25.47884
-24.97353
-25.91488
-24.88893
-23.46387
-24.61046
-24.88398
-19.90727
-11.44672
-12.86753
-15.00571
-26.01734
-37.61623
-44.96369
-47.68124
-57.39047
-60.53555
-61.41298
-82.87822
-79.72055
-49.31906
-39.97077
-55.80282
-81.97016
-108.0064
-123.5594
-128.4375
-124.2553
-112.7992
-97.56171
-77.89788
-53.93583
-28.88525
-6.451355
11.56233
26.38868
38.69152
48.86449
57.53522
62.54935
64.92553
64.01023
64.23755
-61.76786
-26.62021
-33.53221
-33.07131
-29.37687
-25.53098
-26.29451
-25.51561
-25.00474
-25.94503
-24.93659
-23.47573
-24.63529
-24.98225
-20.07824
-11.67741
-12.99599
-15.08306
-26.22494
-37.87524
-45.49798
-48.36298
-57.41644
-60.73595
-62.24843
-83.70785
-79.62479
-48.64197
-40.10217
-57.31354
-84.57751
-109.8631
-124.4218
-128.9581
-124.623
-112.8473
-97.41998
-77.54141
-53.33338
-28.1405
-5.685824
12.22886
26.95965
39.22185
49.29363
57.90654
62.76195
64.94098
63.92645
63.67275
41.41923
43.96576
47.36987
51.96205
52.07715
50.54909
48.13435
45.47559
43.30056
42.58737
43.87369
46.8233
50.63566
53.69478
54.25186
54.17608
54.55987
54.31598
53.01911
51.57041
50.14721
47.94695
45.66724
43.37366
39.81406
35.04763
29.49511
24.81916
22.25054
22.383
25.19838
27.99075
29.64054
29.17691
26.76229
24.14237
21.65242
19.1508
16.64112
14.17148
11.40376
8.7156
6.139088
3.502605
0.7103488
-3.822192
-10.07416
-14.14761
-16.31681
-19.18353
-23.75702
-28.81245
-33.77235
-38.99875
-44.62449
-50.72725
-57.12884
-63.50311
-70.0592
-76.91663
-84.04086
-91.34221
-98.95554
-107.0243
-115.0746
-122.8821
-130.7889
-138.2922
-145.0987
-151.4625
-157.3504
-162.6575
-167.4267
-171.5776
-174.7315
-177.0722
-178.7592
-179.8214
-179.9405
-179.3139
-178.0898
-176.2883
-173.902
-171.0364
-167.7349
-164.0049
-160.1549
-156.463
-153.0988
-150.0801
-147.1177
-144.3811
-144.5136
-145.3124
-141.9758
-136.4132
-133.6897
-132.251
-133.0527
-150.7239
-73.8531
-64.61461
-52.47622
-46.96026
-43.59421
-42.55459
-43.70609
-47.16049
-51.77481
-58.04404
-65.03381
-73.71141
-79.67591
-82.67529
-84.36606
-85.97855
-87.90961
-89.68857
-91.08462
-91.72632
-90.65341
-87.19831
-82.64144
-80.08843
-81.84489
-82.63649
-81.27494
-80.24829
-80.124
-78.93807
-77.10618
-76.40393
-76.76373
-77.2038
-77.68603
-78.27133
-78.7633
-78.13414
-77.71921
-76.21191
-76.82569
-79.15896
-79.23841
-79.97154
-77.68048
-84.80446
-85.69059
-85.80825
-81.10154
-124.4022
-54.72498
-36.92434
-20.19411
-10.11662
-1.882888
4.844924
10.56247
15.65642
20.09144
24.04761
27.6277
30.87634
33.91921
36.78515
39.45922
41.92629
44.21797
46.41593
48.51301
50.51293
52.41863
54.22454
55.92782
57.59792
59.22632
60.817
62.34335
63.77927
65.16493
66.52977
67.87692
69.19665
70.45284
71.67109
72.88147
74.06696
75.24099
76.39751
77.55384
78.66866
79.79068
80.87013
81.93951
82.99282
84.04241
85.07211
86.08085
87.09309
88.12645
89.15841
90.16294
91.15104
92.13655
93.15407
94.18709
95.20317
96.22678
97.26369
98.30248
99.35841
100.4194
101.4807
102.5883
103.7926
105.022
106.2463
107.5072
108.7744
110.1772
111.988
113.9347
111.7204
110.5424
109.5962
108.5399
107.4699
106.4925
105.5742
104.7103
103.9194
103.1601
102.3592
101.5447
100.7501
99.99389
99.25399
98.5124
97.75626
96.99885
96.26401
95.53386
94.78581
94.03574
93.29467
92.53656
91.78645
91.01645
90.21235
89.41914
88.6428
87.8585
87.05023
86.19102
85.38057
84.52033
83.62958
82.73967
81.84436
80.90883
79.95526
78.99807
78.01488
76.97495
75.88522
74.7915
73.69811
72.55764
71.35998
70.11967
68.81625
67.45775
66.05616
64.59618
63.11115
61.51481
59.81285
58.0435
56.14993
54.16416
52.01254
49.68394
47.20667
44.5376
41.55255
38.2317
34.45534
30.27738
25.4515
19.52456
12.68265
1.233493
-8.006284
111.8096
110.6906
109.7195
108.6774
107.6141
106.6206
105.6851
104.8127
104.0164
103.2515
102.4458
101.6276
100.8282
100.0669
99.32292
98.57772
97.81863
97.05784
96.32112
95.58752
94.83622
94.08423
93.34111
92.57974
91.82939
91.05663
90.24862
89.45535
88.67704
87.89126
87.08013
86.22672
85.40441
84.54619
83.65211
82.7614
81.86545
80.92626
79.97211
79.01441
78.03051
76.98681
75.89426
74.79991
73.70699
72.56334
71.36426
70.12289
68.81577
67.4553
66.05146
64.58846
63.10495
61.50123
59.79516
58.02473
56.12277
54.13634
51.97412
49.63765
47.15501
44.47763
41.47469
38.14376
34.35313
30.14616
25.28503
19.32551
12.36617
1.058934
-8.222045
-54.79503
-37.22223
-20.6365
-10.39475
-2.118341
4.665327
10.42028
15.54202
19.9896
23.96397
27.56026
30.81745
33.86816
36.74369
39.42609
41.90251
44.19607
46.39927
48.50089
50.50508
52.41332
54.22476
55.9274
57.60003
59.2313
60.82429
62.35564
63.7929
65.1795
66.54557
67.89455
69.21811
70.4773
71.69507
72.90833
74.09514
75.27323
76.43226
77.58641
78.71765
79.83332
80.91462
81.98704
83.04328
84.09493
85.12825
86.14001
87.15583
88.19217
89.22783
90.23519
91.22751
92.21768
93.23862
94.27726
95.2977
96.32642
97.36803
98.41238
99.47272
100.5394
101.6087
102.7233
103.9337
105.1707
106.3979
107.6572
108.9241
110.3589
112.1744
113.8268
-77.97666
-65.81881
-53.50749
-47.47496
-43.88166
-42.63424
-43.59448
-46.91378
-51.44621
-57.64455
-64.58214
-73.36617
-79.36156
-82.4385
-84.17199
-85.86245
-87.80321
-89.59292
-91.06185
-91.85134
-90.9295
-87.54693
-82.96796
-80.23042
-81.9072
-82.71813
-81.3148
-80.22332
-80.13988
-78.98021
-77.13195
-76.41496
-76.76778
-77.20781
-77.69
-78.2752
-78.80026
-78.14103
-77.74242
-76.25586
-76.91086
-79.28161
-79.39281
-79.9775
-77.99871
-85.23742
-85.65699
-85.53
-82.90297
-113.9072
42.70202
43.2112
46.80149
51.56253
52.04937
50.69957
48.36249
45.72832
43.49577
42.54968
43.5955
46.30872
50.04514
53.41284
54.22222
54.14924
54.53015
54.40272
53.20864
51.64202
50.25796
48.06496
45.76687
43.46121
39.93904
35.19843
29.63085
24.91173
22.30172
22.1633
24.84985
27.82417
29.70712
29.24753
26.81518
24.19522
21.70091
19.19641
16.67961
14.2066
11.44179
8.758088
6.175438
3.505825
0.6795075
-3.832827
-10.10262
-14.14408
-16.28449
-19.15875
-23.76049
-28.83086
-33.7981
-39.03446
-44.66597
-50.78829
-57.20172
-63.57319
-70.14728
-77.02441
-84.16539
-91.47758
-99.11563
-107.2236
-115.2881
-123.1073
-131.035
-138.5618
-145.3759
-151.7738
-157.67
-162.9452
-167.6949
-171.7985
-174.9105
-177.2304
-178.8966
-179.9371
-179.9982
-179.3323
-178.0694
-176.2284
-173.8035
-170.9153
-167.5791
-163.8084
-159.9806
-156.3136
-152.9362
-149.876
-146.8517
-144.2657
-144.5718
-145.2313
-141.5015
-135.9995
-133.4555
-132.3583
-134.5309
-145.9612
-53.43007
-28.23507
-33.16554
-32.9038
-29.82769
-25.61895
-26.30062
-25.58585
-25.05727
-25.99289
-25.01832
-23.52544
-24.70723
-25.1717
-20.4117
-12.1203
-13.24003
-15.24573
-26.57584
-38.24864
-46.33993
-49.42437
-56.70028
-60.13283
-63.42315
-85.53023
-79.78563
-48.09413
-40.84784
-60.45657
-88.12359
-111.8906
-125.1763
-128.7577
-124.0854
-112.0059
-96.33222
-76.2618
-51.89476
-26.67887
-4.291018
13.45957
28.02944
40.19175
50.09572
58.481
63.0553
64.9362
63.82033
62.71041
-47.54003
-29.77893
-32.38213
-32.43379
-30.39981
-25.70674
-26.30559
-25.70798
-25.13574
-26.05911
-25.14021
-23.64352
-24.86177
-25.49918
-20.99546
-12.83364
-13.63627
-15.56698
-27.13282
-38.75642
-47.40585
-50.37091
-54.87859
-58.31589
-64.8453
-88.41981
-80.38744
-48.2667
-43.56096
-65.69617
-92.57485
-114.451
-126.5884
-129.7692
-124.4831
-111.7278
-95.73382
-75.35149
-50.63115
-25.27786
-2.913767
14.6422
29.06699
41.15539
50.88575
59.06479
63.32353
64.87161
63.61381
61.83138
44.41017
43.25146
46.21342
51.01332
51.92748
50.79103
48.51562
45.8541
43.45593
42.27504
43.22183
45.66268
49.15554
52.79342
54.11741
54.12347
54.49611
54.49597
53.38163
51.73037
50.35524
48.17721
45.86516
43.53492
40.04641
35.32545
29.71493
24.90577
22.1104
21.85425
24.3878
27.54
29.84451
29.36609
26.89375
24.25649
21.75032
19.24571
16.70963
14.2405
11.48354
8.792912
6.186398
3.47519
0.5905238
-3.881808
-10.13469
-14.11801
-16.26191
-19.13386
-23.76254
-28.85395
-33.83347
-39.08371
-44.71958
-50.86813
-57.29386
-63.64591
-70.2357
-77.13156
-84.29183
-91.60698
-99.27057
-107.4219
-115.4717
-123.2868
-131.2804
-138.781
-145.5681
-151.9645
-157.8117
-163.0521
-167.8062
-171.9709
-175.0343
-177.3437
-178.9969
-180.0314
-180.023
-179.3238
-178.0216
-176.1369
-173.6632
-170.7499
-167.3752
-163.5696
-159.7965
-156.1623
-152.7694
-149.6928
-146.6952
-144.3012
-144.6878
-145.0727
-140.9723
-135.5598
-133.2277
-132.5804
-135.5201
-141.6312
-81.07064
-67.39328
-54.70335
-48.14764
-44.28263
-42.80807
-43.52938
-46.68942
-51.14928
-57.28361
-64.18731
-73.21133
-79.2677
-82.45843
-84.20191
-85.82301
-87.77098
-89.57139
-91.12345
-92.0787
-91.33702
-88.06323
-83.5533
-80.61049
-82.01944
-82.79734
-81.35822
-80.18479
-80.16016
-79.038
-77.1782
-76.44826
-76.79026
-77.23195
-77.71089
-78.28823
-78.85198
-78.14948
-77.77071
-76.31781
-77.05315
-79.49046
-79.68414
-79.95863
-78.35542
-85.84759
-85.61214
-85.35855
-84.91218
-106.5152
-54.60433
-37.36078
-21.0127
-10.64485
-2.338437
4.4974
10.2824
15.42561
19.90636
23.88733
27.49857
30.76202
33.81715
36.70093
39.39239
41.88074
44.17193
46.37865
48.48409
50.49275
52.40328
54.22234
55.92151
57.59636
59.22974
60.82399
62.36216
63.79925
65.18406
66.55119
67.9023
69.23079
70.49158
71.70611
72.92285
74.10995
75.29205
76.45106
77.60198
78.72867
79.85339
80.93583
82.01013
83.06603
84.11926
85.15472
86.16653
87.18151
88.22051
89.26077
90.26798
91.26137
92.25073
93.27478
94.32054
95.34067
96.36978
97.41767
98.46444
99.52846
100.5998
101.6749
102.7945
104.0235
105.2743
106.4976
107.7603
109.0411
110.5167
112.3071
113.6437
111.8601
110.7981
109.7941
108.7471
107.6919
106.7009
105.7483
104.8601
104.0629
103.3047
102.4945
101.6725
100.8662
100.1031
99.35839
98.61343
97.85088
97.08555
96.3502
95.61654
94.86206
94.1092
93.36685
92.60069
91.85466
91.08014
90.26583
89.47273
88.69382
87.90863
87.09454
86.23811
85.41628
84.56208
83.6639
82.77287
81.87706
80.93342
79.98025
79.02409
78.04081
76.9919
75.89553
74.80237
73.71208
72.56416
71.36435
70.12313
68.81104
67.44852
66.04257
64.57688
63.09909
61.48468
59.77424
58.00471
56.09319
54.11119
51.93547
49.59201
47.10793
44.42625
41.40825
38.05263
34.25682
30.02477
25.13168
19.14177
12.09357
0.9946892
-8.355173
111.8678
110.9042
109.8997
108.8612
107.8268
106.8437
105.8719
104.9704
104.1736
103.4172
102.5974
101.7733
100.9595
100.1907
99.44082
98.69453
97.92767
97.15492
96.41897
95.68178
94.92183
94.16742
93.42506
92.65117
91.91017
91.13257
90.30962
89.51816
88.73743
87.95139
87.12991
86.28685
85.45233
84.598
83.69487
82.80433
81.90652
80.9527
79.999
79.04484
78.06575
77.00946
75.90364
74.81027
73.72692
72.57235
71.37037
70.13119
68.81221
67.44562
66.03366
64.5624
63.09869
61.47017
59.75505
57.98388
56.05669
54.08635
51.88929
49.53543
47.04669
44.36524
41.3272
37.94211
34.14012
29.88105
24.95046
18.93899
11.81722
1.010999
-8.502327
-54.39803
-37.32552
-21.36852
-10.89519
-2.599216
4.294155
10.11715
15.28915
19.8048
23.78667
27.4228
30.6962
33.75288
36.6511
39.35884
41.862
44.1416
46.35357
48.46664
50.48443
52.39853
54.22742
55.91968
57.59866
59.23473
60.83416
62.38463
63.81779
65.20159
66.575
67.92882
69.26064
70.5239
71.73479
72.95789
74.14449
75.33216
76.49165
77.64733
78.79835
79.90991
80.99133
82.06993
83.12896
84.18688
85.22695
86.2383
87.25633
88.30346
89.35321
90.3598
91.3566
92.34794
93.37573
94.43288
95.45434
96.48908
97.54592
98.59367
99.65988
100.738
101.8216
102.9406
104.1771
105.4359
106.6468
107.9117
109.2018
110.6838
112.3757
113.3681
-84.32597
-69.26352
-56.20709
-49.00999
-44.83144
-43.14336
-43.54764
-46.50982
-50.84828
-56.88946
-63.74488
-73.09495
-79.14876
-82.29632
-83.97777
-85.54721
-87.63742
-89.45462
-91.13651
-92.35694
-91.8832
-88.75393
-84.37995
-81.23799
-82.15946
-82.79446
-81.35
-80.11628
-80.17087
-79.11219
-77.25419
-76.5267
-76.85625
-77.29389
-77.77174
-78.31774
-78.89938
-78.15132
-77.79189
-76.42764
-77.32139
-79.86871
-80.14565
-79.80058
-78.80465
-86.66938
-85.57335
-85.10703
-86.00163
-98.78162
46.57282
43.62889
45.74167
50.31885
51.67621
50.8392
48.6706
46.02851
43.55095
42.26005
42.83086
44.93283
48.04842
51.82781
53.78332
54.10634
54.47899
54.59924
53.60237
51.86968
50.50635
48.31935
46.00884
43.60746
40.15748
35.44255
29.76367
24.85309
21.9157
21.46303
23.81689
27.10422
29.9796
29.54169
27.01932
24.35289
21.81419
19.3103
16.73755
14.28928
11.53342
8.82292
6.190117
3.414792
0.4495035
-3.97278
-10.16522
-14.03945
-16.21623
-19.10783
-23.77318
-28.88596
-33.88158
-39.14899
-44.79366
-50.98273
-57.42818
-63.74573
-70.34704
-77.25977
-84.46306
-91.79135
-99.47987
-107.7123
-115.7511
-123.5391
-131.6284
-139.1395
-145.9025
-152.3522
-158.2008
-163.4562
-168.2701
-172.313
-175.2827
-177.5776
-179.2092
-180.2394
-180.1173
-179.3757
-178.0108
-176.0643
-173.5238
-170.5845
-167.1567
-163.3082
-159.6151
-156.0061
-152.604
-149.5655
-146.6807
-144.5051
-144.7125
-144.4047
-140.0523
-135.0341
-132.9652
-132.8281
-136.545
-136.4578
-41.85774
-30.58331
-31.45551
-32.15932
-31.24542
-25.80691
-26.30864
-25.91581
-25.25573
-26.14196
-25.29797
-23.86331
-25.14879
-26.04256
-21.99128
-13.8401
-14.25897
-16.12069
-27.96818
-39.42189
-48.636
-51.06205
-52.35652
-55.68786
-66.50703
-92.67742
-82.11378
-50.20454
-49.8209
-72.77982
-97.72031
-117.3682
-128.0182
-129.9848
-124.6574
-111.2849
-94.98742
-74.27628
-49.14096
-23.67111
-1.293552
16.05816
30.32223
42.31254
51.79481
59.66689
63.57799
64.73956
63.32539
60.96962
-35.9506
-30.36323
-30.6388
-32.03882
-31.8616
-26.02833
-26.30651
-26.2621
-25.463
-26.24105
-25.4648
-24.21123
-25.65323
-26.94946
-23.68236
-15.40077
-15.15144
-16.88929
-29.09726
-40.34271
-49.9816
-51.48485
-49.36298
-52.56983
-68.39995
-98.01501
-85.21916
-55.78459
-59.57857
-81.36898
-103.6686
-121.1975
-130.3618
-131.1746
-125.4519
-111.0866
-94.10951
-73.08731
-47.59463
-21.97421
0.6951588
18.13948
32.00467
43.73507
52.82777
60.23601
63.81047
64.53576
62.9178
60.18533
48.8974
44.62695
45.54899
49.57834
51.27157
50.81986
48.81447
46.2046
43.52196
41.80408
42.29655
44.04445
46.72429
50.59899
53.07263
54.01769
54.51838
54.73266
53.98434
52.09059
50.72921
48.50173
46.22008
43.78001
40.34923
35.59441
29.78196
24.74794
21.54407
20.88964
23.12747
26.52969
30.02173
29.66883
27.11705
24.39569
21.85342
19.37422
16.75011
14.33675
11.57712
8.847503
6.170363
3.33167
0.2970512
-4.062212
-10.02106
-13.78874
-16.10982
-19.09307
-23.80711
-28.93275
-33.94315
-39.21643
-44.85972
-51.1277
-57.57592
-63.8885
-70.51852
-77.4198
-84.62733
-92.02323
-99.73587
-108.0294
-116.125
-123.8808
-131.9741
-139.4993
-146.2444
-152.7426
-158.5528
-163.7066
-168.4382
-172.6464
-175.5239
-177.8265
-179.4095
-180.4614
-180.1792
-179.4332
-177.9958
-175.9843
-173.3575
-170.4199
-166.9323
-163.0169
-159.4423
-155.8313
-152.4201
-149.4703
-146.7133
-144.6836
-144.3443
-143.0559
-138.7857
-134.4274
-132.7209
-132.9466
-137.074
-131.7227
-87.49031
-71.68066
-58.23268
-50.25929
-45.66562
-43.8021
-43.7403
-46.45776
-50.55459
-56.46706
-63.19061
-72.70559
-79.01711
-82.16871
-83.86696
-85.48719
-87.58784
-89.37009
-91.21041
-92.76788
-92.63562
-89.66078
-85.44431
-82.0612
-82.29311
-82.59395
-81.23422
-79.99716
-80.14358
-79.20548
-77.37999
-76.70067
-77.00544
-77.42447
-77.90021
-78.37139
-78.92426
-78.14344
-77.79622
-76.67852
-77.8389
-80.55203
-80.77979
-79.44895
-79.60924
-87.56666
-85.68894
-84.58479
-85.56378
-90.25551
-53.8778
-37.0233
-21.65399
-11.11463
-2.905959
4.083977
9.968428
15.15274
19.68114
23.67009
27.36024
30.62531
33.67473
36.60514
39.32588
41.82778
44.09042
46.32834
48.4528
50.48365
52.39168
54.22434
55.91321
57.5946
59.23351
60.84833
62.39729
63.82206
65.21528
66.59016
67.93067
69.26496
70.54721
71.75064
72.98022
74.16358
75.36051
76.52346
77.68039
78.81803
79.93421
81.0195
82.1082
83.16884
84.22588
85.26394
86.28074
87.3067
88.3525
89.39963
90.40293
91.41026
92.40319
93.43422
94.50245
95.52687
96.56457
97.62192
98.67232
99.75336
100.8418
101.9377
103.051
104.3079
105.5992
106.805
108.0807
109.3657
110.8115
112.355
112.9891
111.7941
110.9663
109.9986
108.9719
107.9449
106.9685
105.9653
105.0437
104.2498
103.5031
102.6621
101.8355
101.0169
100.2534
99.49678
98.74719
97.97776
97.20311
96.47391
95.73108
94.96296
94.2089
93.46714
92.68176
91.95214
91.16169
90.33047
89.5434
88.76392
87.98429
87.15088
86.29058
85.47041
84.6115
83.70311
82.8249
81.9334
80.96804
80.01305
79.05259
78.0793
77.02517
75.91181
74.80663
73.73295
72.57714
71.36787
70.13041
68.8108
67.44521
66.02511
64.53208
63.08676
61.44092
59.73801
57.96441
56.00549
54.06336
51.83608
49.48532
46.97657
44.29401
41.24252
37.83424
34.02531
29.7371
24.76557
18.74697
11.59124
1.21086
-8.426185
111.6055
110.9358
110.0747
109.1101
108.1328
107.2083
106.1523
105.1835
104.4063
103.6993
102.8514
101.9921
101.1281
100.3727
99.63492
98.87117
98.06558
97.27228
96.56997
95.82692
95.04029
94.2927
93.55889
92.74001
92.07345
91.2457
90.38364
89.6134
88.80386
88.05349
87.20631
86.37764
85.56594
84.67533
83.716
82.84294
81.96126
80.99747
80.06592
79.09755
78.08125
77.02698
75.95403
74.83801
73.73524
72.59893
71.39066
70.11101
68.79449
67.44662
66.05844
64.54552
63.08193
61.3691
59.70536
57.9673
55.92553
54.03405
51.72475
49.44421
46.92326
44.14459
41.07927
37.65836
33.84489
29.51906
24.47508
18.43679
11.23972
1.481098
-8.234805
-52.88233
-36.62078
-22.15261
-11.49709
-3.413628
3.894834
9.757374
14.89435
19.44334
23.56566
27.31409
30.4918
33.57471
36.56499
39.2413
41.74337
44.0755
46.35461
48.44356
50.47525
52.34405
54.1956
55.9372
57.56945
59.25002
60.87274
62.36798
63.85759
65.26433
66.59844
67.92665
69.33253
70.65724
71.78911
73.03645
74.21437
75.4328
76.59264
77.73892
78.86655
80.0212
81.12754
82.2054
83.26083
84.30176
85.37217
86.41335
87.40894
88.42949
89.52514
90.56922
91.56291
92.55284
93.56379
94.66774
95.7173
96.70241
97.8047
98.89404
99.9551
101.0382
102.1395
103.2395
104.5509
105.9069
107.0391
108.2733
109.4964
110.8728
112.2539
112.5384
-90.93061
-74.90815
-60.8268
-52.14721
-46.9194
-44.81868
-44.05654
-46.49436
-50.3495
-56.05085
-62.54816
-71.68907
-78.80912
-82.10953
-83.36815
-85.05009
-87.41644
-89.21325
-91.25417
-93.22377
-93.54405
-90.7536
-86.69845
-83.01278
-82.44002
-82.19336
-80.93598
-79.76265
-79.97423
-79.25
-77.56278
-77.00621
-77.29144
-77.66238
-78.16485
-78.46776
-78.88299
-78.12039
-77.74001
-77.01207
-78.5906
-81.69093
-81.67335
-78.87467
-79.5267
-89.84273
-85.79447
-83.52238
-83.312
-81.86024
51.25819
46.78204
46.30321
49.19694
50.83777
50.72032
48.96574
46.42662
43.57862
41.52931
41.79272
43.08432
45.0721
48.96093
51.86882
53.60366
54.69662
54.91791
54.23637
52.50979
51.03282
48.75614
46.54877
44.07542
40.67498
35.84435
29.83025
24.63621
21.26754
20.17035
22.23794
25.64348
29.87577
29.71438
27.25528
24.57928
22.00002
19.47773
16.89988
14.31019
11.63423
9.028213
6.108526
3.216293
0.1540813
-4.14869
-9.491571
-13.34032
-16.00294
-19.11715
-23.85559
-29.02976
-34.00311
-39.31846
-44.86562
-51.30791
-57.6555
-64.01588
-70.89336
-77.82594
-84.83688
-92.26279
-100.1831
-108.2426
-116.4478
-124.6691
-132.7128
-139.9739
-146.8732
-153.3252
-159.0722
-164.3646
-169.1681
-173.185
-175.8632
-178.3116
-179.8051
-180.8923
-180.2917
-179.5744
-177.9999
-175.9504
-173.1703
-170.164
-166.6652
-162.6632
-159.2004
-155.601
-152.1578
-149.2792
-146.6298
-144.6003
-143.5119
-141.297
-137.2145
-133.6203
-132.3714
-132.3377
-136.0016
-128.084
-30.51554
-28.74947
-30.27182
-32.81184
-34.60748
-26.09381
-26.18335
-26.85122
-25.7852
-26.30736
-25.60682
-24.70851
-26.44045
-28.28204
-26.23545
-18.26599
-16.40459
-17.99398
-30.53453
-42.00848
-51.8016
-52.19932
-46.18212
-49.00182
-69.60926
-101.571
-88.85732
-65.39681
-72.24672
-91.00108
-110.2454
-125.5443
-132.9873
-131.9155
-126.6713
-110.2337
-92.16139
-71.58012
-46.28662
-20.03456
3.208236
21.10849
34.16445
45.30237
53.91268
60.83331
63.92392
64.25169
62.47602
59.57927
7.543704
1.834428
61.35169
64.50839
69.43668
47.28962
29.89846
64.88204
62.96534
22.57238
58.83118
65.51578
2.97454
61.09485
106.9454
65.71529
67.50543
63.79375
64.45521
65.96604
59.61496
64.39817
24.50646
64.35914
20.53267
65.0018
64.27962
62.38477
63.92246
56.59657
60.46204
61.51705
41.86978
15.86242
65.0006
27.42635
24.4316
66.10006
19.00835
65.15081
65.99693
2.212015
-47.14625
69.43033
64.51755
11.32526
6.498819
2.712216
12.26545
66.16638
62.79696
55.19808
62.4167
69.0574
65.06276
22.82506
62.39069
60.66011
60.90904
2.106913
84.9709
63.94312
43.35301
77.16148
66.46152
80.74562
36.59038
45.28586
74.4032
55.28419
46.51245
57.75342
65.2385
63.59047
63.93901
63.86798
63.62656
63.36262
12.81144
63.78273
67.80497
62.88279
67.3257
42.02791
62.44778
95.73007
68.49535
24.67765
59.05783
62.33651
66.86378
67.25712
65.44903
62.30329
74.03413
63.18274
65.76105
64.67408
18.63146
47.027
60.84448
51.76739
65.27937
49.03243
62.1488
64.46101
61.0668
65.19489
60.8373
64.99202
24.00893
-76.66101
23.58099
56.37442
61.20296
19.06071
43.28888
31.30495
65.81056
61.74251
60.45667
58.67133
56.18508
121.2004
63.829
59.39341
11.89058
65.07402
32.91327
49.43352
71.46624
67.31745
64.45275
60.5816
117.5661
24.89093
62.6251
-0.611617
64.31821
65.9979
64.50065
66.40568
64.9782
61.07905
16.30212
64.71427
64.85339
62.7024
80.75083
10.1546
47.71567
92.46646
56.72026
64.40791
65.92849
64.2792
95.50555
61.4692
13.51409
62.8066
59.46299
64.63867
62.69229
15.79267
67.29351
36.52394
65.44234
66.34567
35.97368
64.14076
76.83908
-53.32742
23.32611
61.75493
58.11451
8.904692
59.24261
64.87633
46.68121
-8.131976
65.01044
65.38764
61.5468
60.33325
61.5634
61.47203
65.58262
65.24682
67.83929
50.33537
62.35972
24.56082
63.01333
43.09524
51.24942
60.61921
50.7077
-3.689094
63.98368
60.84893
29.09199
64.03342
61.52541
67.55632
64.10447
59.7366
67.33056
62.89546
61.24926
64.35724
27.48896
64.90251
39.47451
65.09804
92.79052
23.85193
63.3961
52.79426
62.84205
61.15066
61.85403
62.56463
63.92962
66.49795
77.54342
36.01029
63.8616
22.71629
62.66729
63.30843
77.76464
62.82259
54.1517
65.11388
52.74008
45.08288
63.49837
64.36512
-119.8801
117.1222
62.11825
6.568188
103.684
21.73244
74.0734
59.18787
59.00837
63.13355
61.98404
64.3779
64.38135
4.450411
67.48367
62.44695
109.3045
58.08632
54.80298
62.86877
51.88715
62.51776
64.27797
64.86788
61.25795
67.07697
65.38964
63.27139
83.65938
64.99337
64.0817
65.02353
60.73189
48.50791
52.54184
117.4499
67.25011
18.3347
65.09745
98.39826
64.96181
22.71181
63.58319
62.72063
55.14425
42.03285
67.75677
78.52705
62.85464
65.39104
65.56683
63.24683
59.64209
49.239
39.56238
64.75128
66.62281
-51.48005
5.640778
1.89874
64.43744
63.11089
61.40509
-23.11563
63.68784
72.37157
62.80755
14.69172
62.5284
64.70175
59.24308
70.16675
64.92151
62.87102
26.4619
70.0539
62.46908
61.85352
64.18505
64.61356
62.11245
56.28024
57.16528
63.86288
123.8823
65.81128
67.28006
63.34435
63.07084
63.15322
63.58919
69.75143
63.26839
22.52665
59.14744
64.08712
65.4064
112.6277
62.35766
16.07434
59.44336
-26.70032
64.35083
48.3583
61.26565
62.31002
63.59231
64.71957
70.98786
8.26558
70.68153
60.89808
59.41218
61.61048
8.807216
61.06135
19.9998
12.89531
92.70123
4.844237
49.85183
64.78013
61.24078
62.25402
64.76955
60.66952
39.48933
64.80695
60.54898
61.17777
62.63322
64.36274
65.53725
61.81154
64.84281
20.82912
64.41918
61.55207
62.09672
42.22897
63.04597
78.23597
42.1044
75.31935
62.29008
61.01267
60.52722
57.11714
-175.4229
61.42753
63.62926
64.30438
49.38045
29.35097
94.26959
61.74307
33.36237
66.29251
60.56635