/*--------------------------------*- C++ -*----------------------------------*\
| =========                 |                                                 |
| \\      /  F ield         | OpenFOAM: The Open Source CFD Toolbox           |
|  \\    /   O peration     | Version:  2406                                  |
|   \\  /    A nd           | Website:  www.openfoam.com                      |
|    \\/     M anipulation  |                                                 |
\*---------------------------------------------------------------------------*/
FoamFile
{
    version     2.0;
    format      ascii;
    arch        "LSB;label=32;scalar=64";
    class       surfaceScalarField;
    location    "2.92";
    object      phi;
}
// * * * * * * * * * * * * * * * * * * * * * * * * * * * * * * * * * * * * * //

dimensions      [0 3 -1 0 0 0 0];

oriented        oriented;

internalField   nonuniform List<scalar> 
326221
(
-0.002364998
-0.005655198
0.008020196
-0.001480301
-0.0008846974
0.0009102748
-0.002390576
0.0001163496
0.0007939252
-0.0009140123
0.001030362
-0.0005485334
-0.0003654788
-0.0005111754
-3.735804e-05
-0.0002459734
-0.000265202
0.0002929253
-0.0005388987
0.0001271826
0.0001657427
-0.000372818
0.0005000006
-0.0006159623
0.0002431443
-0.001124098
0.0005081359
-0.001525056
0.0004009573
-0.0009329273
-0.0005921282
0.0005767106
-0.001509638
0.001574201
-0.0009974902
0.002810484
-0.001236283
0.003737219
-0.0009267353
0.003843678
-0.000106459
0.002113253
0.001730425
-8.53281e-05
0.002198581
-0.0006462469
0.0005609188
0.0009205799
-0.001566827
0.003213646
-0.002293066
0.003158745
5.490102e-05
0.001619283
0.001539462
0.001479231
0.0001400525
0.001866632
-0.0003874019
-0.0004933483
0.002359981
-0.004201378
0.003708029
-0.006669048
0.002467671
-0.007705283
0.001036234
-0.008024617
0.0003193347
-0.007988959
-3.565829e-05
-0.007696434
-0.000292525
-0.007291646
-0.0004047879
-0.006736288
-0.0005553583
-0.005984442
-0.0007518462
-0.005094243
-0.0008901987
-0.004184454
-0.0009097887
-0.003416427
-0.0007680275
-0.002755256
-0.0006611707
-0.002129284
-0.0006259717
-0.001608544
-0.00052074
-0.0008506034
-0.0007579408
-6.998526e-05
-0.0007806182
0.0004471917
-0.000517177
0.001274831
-0.0008276395
0.001835619
-0.0005607873
-0.001027925
0.002863544
-0.0009041604
-0.0001237649
0.0001361675
-0.001040328
0.0009970541
-0.0008608866
0.001645104
-0.0006480502
0.002175191
-0.0005300867
0.002554822
-0.0003796312
0.00272698
-0.0001721576
0.002615292
0.0001116881
0.002179178
0.0004361133
0.00141821
0.0007609688
0.0003465487
0.001071661
-0.0006165135
0.0009630621
-0.0008933012
0.0002767878
-0.0007674725
-0.0001258288
-0.0005704673
-0.0001970051
-0.0002178817
-0.0003525856
0.0002279116
-0.0004457932
0.0003015467
-7.363519e-05
5.2697e-05
0.0002488497
-1.137351e-05
6.407051e-05
-3.548932e-05
2.411581e-05
6.163134e-06
-4.165245e-05
0.000357437
-0.0003512739
0.0008904959
-0.0005330588
0.001393988
-0.000503492
0.001725944
-0.0003319565
0.001878508
-0.0001525636
0.001741864
0.0001366444
0.001002662
0.0007392014
-0.0001024987
0.001105161
-0.0007902825
0.0006877838
-0.0004867608
-0.0003035217
2.445748e-05
-0.0005112183
0.00044199
-0.0004175325
0.00071915
-0.00027716
0.0009430935
-0.0002239435
0.001125048
-0.0001819547
0.001282886
-0.0001578378
0.00146741
-0.0001845236
0.001589273
-0.0001218633
0.001639827
-5.055389e-05
0.001659449
-1.962211e-05
0.001772922
-0.0001134729
0.002249735
-0.0004768131
0.002498333
-0.000248598
0.001890151
0.0006081818
0.001284369
0.0006057821
0.001356379
-7.201009e-05
0.00174411
-0.0003877308
0.002086353
-0.0003422436
0.002346149
-0.0002597953
0.002583164
-0.0002370149
0.002822921
-0.0002397578
0.003087557
-0.0002646361
0.003352776
-0.0002652187
0.003563462
-0.0002106862
0.003704521
-0.0001410585
0.003779459
-7.493843e-05
0.003831132
-5.167268e-05
0.003901517
-7.038543e-05
0.00401313
-0.0001116127
0.004149726
-0.0001365961
0.004259326
-0.0001096002
0.004336076
-7.675015e-05
0.004402651
-6.657435e-05
0.004551684
-0.0001490329
0.004609033
-5.734974e-05
0.004643682
-3.46482e-05
0.004601866
4.181586e-05
0.004475457
0.0001264084
0.004314244
0.0001612135
0.004158739
0.0001555052
0.004008183
0.0001505559
0.003871348
0.0001368348
0.003718793
0.000152555
0.003514406
0.0002043869
0.003208263
0.0003061434
0.002818677
0.0003895857
0.002381464
0.0004372127
0.001935356
0.0004461088
0.001503198
0.0004321573
0.00111164
0.0003915582
0.0007618759
0.0003497641
0.0004347183
0.0003271576
0.0001526121
0.0002821062
-0.0001435595
0.0002961717
-0.0004955894
0.0003520299
-0.0007999454
0.000304356
-0.0009329765
0.0001330311
-0.000830057
-0.0001029195
-0.0005110724
-0.0003189846
-0.0008299045
0.0003188321
-0.001733878
0.0009039735
-0.002115805
0.0003819268
-0.001653389
-0.0004624158
-0.0009801066
-0.0006732824
0.001276358
-0.002256465
0.002708021
-0.001431663
-0.004657158
0.007365179
-0.004197838
-0.0004593193
-0.003243189
-0.000954649
-0.002410059
-0.00083313
-0.001694434
-0.0007156249
-0.0009983773
-0.0006960571
-0.000294155
-0.0007042222
0.0004065741
-0.0007007292
0.0009902266
-0.0005836524
0.001636835
-0.0006466084
0.002194712
-0.000557877
0.002859223
-0.0006645113
0.003229898
-0.0003706745
0.003364558
-0.0001346607
0.003187878
0.0001766798
0.002807854
0.0003800245
0.002465796
0.0003420576
0.002249419
0.0002163775
0.002140691
0.0001087281
0.002005925
0.0001347654
0.001627182
0.0003787434
0.0008954061
0.0007317759
8.476274e-05
0.0008106434
-0.0005268851
0.0006116478
-0.0007175756
0.0001906905
-0.0008956833
0.0001781077
-0.001032948
0.000137265
-0.0009859576
-4.699075e-05
-0.001038064
5.210599e-05
-0.001239091
0.0002010272
-0.001134564
-0.0001045266
-0.0007508627
-0.0003837015
-0.0004081817
-0.000342681
-0.0002501223
-0.0001580595
-0.0001870911
-6.303114e-05
-0.0002059231
1.883198e-05
-0.0003410676
0.0001351445
-0.0005770703
0.0002360027
-0.0005601567
-1.691351e-05
-0.0003990743
-0.0001610825
0.000171255
-0.0005703293
0.0006985642
-0.0005273092
0.000622207
7.635724e-05
5.612654e-06
0.0006165943
-9.596145e-05
0.0001015741
0.001117487
-0.001213448
0.0009655655
0.0001519212
-9.369542e-05
0.001059261
0.001629192
-0.001722887
0.002497519
-0.0008683273
-0.006702601
0.00920012
-0.00687001
0.0001674089
-0.005789098
-0.001080912
-0.005407937
-0.0003811612
-0.005017646
-0.0003902914
-0.004730225
-0.0002874209
-0.004469707
-0.0002605183
-0.004244914
-0.0002247924
-0.003953653
-0.0002912612
-0.003799682
-0.0001539707
-0.003668244
-0.0001314383
-0.003547925
-0.0001203189
-0.003441091
-0.0001068339
-0.003338839
-0.0001022526
-0.003241784
-9.705465e-05
-0.003149656
-9.212769e-05
-0.003067548
-8.210813e-05
-0.00299268
-7.486838e-05
-0.002921029
-7.165063e-05
-0.002850617
-7.041198e-05
-0.002785057
-6.556016e-05
-0.00272241
-6.26471e-05
-0.002664324
-5.808547e-05
-0.002612406
-5.191799e-05
-0.002559421
-5.298529e-05
-0.002506815
-5.260647e-05
-0.002453934
-5.288033e-05
-0.002403939
-4.999543e-05
-0.002359779
-4.415965e-05
-0.00231978
-3.999907e-05
-0.002277944
-4.1836e-05
-0.002236729
-4.121548e-05
-0.002193611
-4.311805e-05
-0.002156024
-3.758655e-05
-0.00212104
-3.498409e-05
-0.002084469
-3.65709e-05
-0.002047747
-3.672229e-05
-0.002010174
-3.757238e-05
-0.001976613
-3.356098e-05
-0.001946034
-3.057943e-05
-0.001976412
3.037788e-05
-0.001959097
-1.731474e-05
-0.001936454
-2.264292e-05
-0.001913874
-2.258005e-05
-0.001894228
-1.96461e-05
-0.001873775
-2.045343e-05
-0.00185565
-1.812497e-05
-0.00183978
-1.587004e-05
-0.001824885
-1.489505e-05
-0.001806721
-1.816349e-05
-0.001788202
-1.851918e-05
-0.001774221
-1.398109e-05
-0.001763364
-1.085649e-05
-0.001755853
-7.511069e-06
-0.001744793
-1.106043e-05
-0.00173107
-1.372337e-05
-0.001720913
-1.015645e-05
-0.001712613
-8.300281e-06
-0.001701993
-1.061962e-05
-0.001693703
-8.290638e-06
-0.00168271
-1.099302e-05
-0.00166851
-1.419994e-05
-0.001651705
-1.680448e-05
-0.001628027
-2.367785e-05
-0.001578366
-4.96612e-05
-0.001508071
-7.029532e-05
-0.001426043
-8.202739e-05
-0.001308635
-0.0001174087
-0.00113835
-0.0001702844
-0.0008527699
-0.0002855804
-0.0004404992
-0.0004122707
0.0003189771
-0.0007594763
0.000772928
-0.0004539509
0.0009702572
-0.0001973292
0.001066035
-9.577754e-05
0.0010815
-1.54653e-05
0.001089841
-8.340802e-06
0.001124825
-3.498405e-05
0.001162081
-3.72565e-05
0.001183373
-2.12919e-05
0.001201905
-1.853189e-05
0.00123256
-3.065449e-05
0.001263881
-3.132102e-05
0.0012933
-2.941973e-05
0.00131768
-2.437935e-05
0.001341871
-2.41908e-05
0.001365876
-2.400589e-05
0.001392532
-2.665593e-05
0.001417003
-2.447105e-05
0.001437254
-2.025073e-05
0.001457952
-2.06981e-05
0.001481928
-2.397605e-05
0.001504158
-2.222945e-05
0.001525183
-2.102498e-05
0.001549325
-2.414189e-05
0.001570202
-2.087738e-05
0.001596268
-2.606609e-05
0.001625352
-2.908366e-05
0.001650091
-2.473917e-05
0.001671268
-2.117752e-05
0.001694242
-2.297303e-05
0.001719837
-2.559581e-05
0.001740713
-2.087575e-05
0.001712527
2.818603e-05
0.001745384
-3.285728e-05
0.001783626
-3.824191e-05
0.001821852
-3.822579e-05
0.001860414
-3.85616e-05
0.001901785
-4.13712e-05
0.00194155
-3.976493e-05
0.001978543
-3.699325e-05
0.002018368
-3.982522e-05
0.002062208
-4.383993e-05
0.002109485
-4.727639e-05
0.002151946
-4.246105e-05
0.002193087
-4.114168e-05
0.0022367
-4.361254e-05
0.002283543
-4.684285e-05
0.002331612
-4.806926e-05
0.002384558
-5.294617e-05
0.002439345
-5.478661e-05
0.002494578
-5.523334e-05
0.002551953
-5.737534e-05
0.002606266
-5.431273e-05
0.002669769
-6.350262e-05
0.002735687
-6.591867e-05
0.002804181
-6.84937e-05
0.002877903
-7.372202e-05
0.002954017
-7.611415e-05
0.003037741
-8.372339e-05
0.00312877
-9.102921e-05
0.003221927
-9.315736e-05
0.003322959
-0.000101032
0.003437461
-0.0001145014
0.003570691
-0.0001332309
0.003825788
-0.0002550969
0.004014221
-0.0001884322
0.00422811
-0.0002138891
0.004466451
-0.0002383415
0.004773928
-0.0003074767
0.005072617
-0.000298689
0.005837332
-0.0007647151
0.0001821343
0.001055966
-0.000340873
-0.001169044
0.001454332
-0.0005956956
0.001721915
-0.0003633597
0.001889556
-0.0001831068
0.002013773
-0.0001325579
0.002130012
-0.0001512226
0.002230931
-0.0001381756
0.002308115
-9.847588e-05
0.002373607
-8.40241e-05
0.002444957
-0.0001020047
0.00251716
-0.000103524
0.002591105
-0.0001033645
0.002662867
-9.614074e-05
0.00273613
-9.74545e-05
0.002808341
-9.621659e-05
0.00288279
-0.0001011052
0.002954441
-9.612214e-05
0.003022215
-8.802483e-05
0.003088077
-8.655922e-05
0.003155192
-9.109125e-05
0.003220029
-8.706646e-05
0.003282926
-8.392228e-05
0.003347841
-8.905633e-05
0.003409295
-8.233172e-05
0.003474268
-9.103896e-05
0.003540722
-9.5538e-05
0.003605365
-8.938227e-05
0.003666278
-8.209025e-05
0.003728961
-8.565661e-05
0.003792165
-8.87993e-05
0.003853594
-8.230512e-05
0.003829301
5.247964e-05
0.003902791
-0.0001063476
0.003979449
-0.0001149002
0.004056089
-0.0001148654
0.004132935
-0.0001154078
0.004211081
-0.0001195172
0.004288781
-0.0001174648
0.004363426
-0.0001116387
0.004440747
-0.0001171459
0.004519101
-0.0001221937
0.00460162
-0.0001297958
0.004679618
-0.0001204589
0.00475804
-0.0001195632
0.004836978
-0.0001225507
0.004918922
-0.0001287873
0.005001149
-0.000130296
0.005087461
-0.0001392586
0.005175668
-0.0001429934
0.005264324
-0.0001438894
0.005355971
-0.0001490219
0.005444531
-0.000142873
0.005541351
-0.000160323
0.005638588
-0.0001631554
0.005740019
-0.0001699251
0.005844149
-0.0001778517
0.005952072
-0.0001840366
0.006064923
-0.0001965747
0.006185069
-0.0002111749
0.006306734
-0.0002148224
0.00643613
-0.0002304283
0.006576341
-0.0002547123
0.006733412
-0.0002903021
0.007075938
-0.000597623
0.007286462
-0.000398956
0.00752774
-0.0004551669
0.007789481
-0.0005000823
0.008131677
-0.0006496727
0.008428929
-0.0005959415
0.009284113
-0.001619899
0.008474675
0.0009915723
-0.01031789
0.009791747
0.0006935555
-0.009174397
-0.002224409
-0.008782465
-0.0007730927
-0.008362625
-0.0008101316
-0.008052149
-0.0005978964
-0.007765916
-0.0005467513
-0.00752181
-0.0004688984
-0.007144055
-0.000669017
-0.006966768
-0.0003312572
-0.00680984
-0.0002883662
-0.006662537
-0.0002676223
-0.006527902
-0.0002414686
-0.00639705
-0.0002331049
-0.006272783
-0.0002213217
-0.006151992
-0.0002129181
-0.006041152
-0.0001929485
-0.005934587
-0.0001814332
-0.005832993
-0.0001732446
-0.005731636
-0.0001717693
-0.005635959
-0.0001612372
-0.005541954
-0.0001566523
-0.005452474
-0.0001475654
-0.00536748
-0.0001369116
-0.005282371
-0.0001380947
-0.005198805
-0.0001361716
-0.005115202
-0.0001364838
-0.005034977
-0.00013022
-0.004957805
-0.0001213321
-0.004884688
-0.0001131162
-0.004808822
-0.0001177021
-0.004735426
-0.0001146107
-0.004659411
-0.0001191338
-0.00458833
-0.0001086676
-0.004517598
-0.0001057159
-0.004446229
-0.0001079396
-0.004374266
-0.0001086855
-0.004301775
-0.0001100636
-0.004231754
-0.0001035819
-0.004162416
-9.991685e-05
-0.004192822
6.078356e-05
-0.004135962
-7.417493e-05
-0.004078731
-7.987353e-05
-0.004020071
-8.123989e-05
-0.00396422
-7.549729e-05
-0.003905918
-7.875522e-05
-0.003849411
-7.463223e-05
-0.003792347
-7.293385e-05
-0.00373535
-7.189272e-05
-0.003674629
-7.888446e-05
-0.003613141
-8.000727e-05
-0.003553015
-7.410704e-05
-0.003492258
-7.161349e-05
-0.003431286
-6.84826e-05
-0.003364645
-7.770106e-05
-0.003294391
-8.397827e-05
-0.003223077
-8.146958e-05
-0.003149657
-8.172094e-05
-0.003069452
-9.082445e-05
-0.002986686
-9.105643e-05
-0.00289484
-0.0001028393
-0.002794143
-0.0001148968
-0.002683425
-0.000127522
-0.002560258
-0.000146845
-0.002409521
-0.0002003988
-0.002238803
-0.0002410131
-0.002052187
-0.0002686436
-0.001821718
-0.0003478778
-0.001524037
-0.0004679655
-0.001121791
-0.0006878257
-0.000609567
-0.0009244949
-0.001709916
-0.005079419
0.004859092
-0.0002389922
-0.004299209
-0.001734859
-0.003231147
-0.001901193
-0.002362148
-0.001584624
-0.001503655
-0.00155455
-0.0006368073
-0.00157107
0.0002472327
-0.001584769
0.001021909
-0.001358329
0.001854776
-0.001479475
0.002597425
-0.001300526
0.003476783
-0.001543869
0.004049752
-0.0009436437
0.004469509
-0.0005544178
0.004760837
-0.0001146483
0.004826248
0.0003146133
0.004665042
0.0005032639
0.004367529
0.0005138909
0.004086711
0.0003895452
0.003869601
0.0003518761
0.003545874
0.0007024703
0.002823803
0.001453847
0.001578423
0.002056023
-8.008651e-06
0.002198079
-0.001252032
0.001434713
-0.001869373
0.0007954495
-0.002112914
0.0003808054
-0.00207412
-8.578391e-05
-0.001947846
-7.416883e-05
-0.001842123
9.530454e-05
-0.001501031
-0.0004456183
-0.001019249
-0.0008654841
-0.0006651005
-0.0006968293
-0.0005489103
-0.0002742496
-0.0005378231
-7.411832e-05
-0.0006387829
0.0001197917
-0.0008277142
0.0003240758
-0.001010521
0.0004188097
-0.0008108873
-0.0002165475
-0.0004793726
-0.0004925971
0.0002876243
-0.001337326
0.001012259
-0.001251944
0.00109134
-2.722981e-06
0.0001535642
0.00155437
-0.0001808738
0.0004360121
0.001510028
-0.00290435
0.00181678
-0.0001548308
0.001668146
0.001207894
0.002862316
-0.002917057
0.0004535741
0.001540415
0.01944544
-0.0008428434
-0.001991994
0.005698381
-0.0009385336
-2.807472e-05
0.0001307594
-0.002109621
0.001111255
-0.001841383
0.001920188
-0.001456983
0.002635196
-0.001245094
0.00320927
-0.0009537059
0.003628276
-0.0005911632
0.003869171
-0.0001292074
0.003864178
0.0004411069
0.003518443
0.001106703
0.002445372
0.002144733
0.000516535
0.002891899
-0.00102718
0.001820502
-0.001348756
0.0001957477
-0.001112995
-0.0004327665
-0.0007525018
-0.0007130786
-0.0004285515
-0.0007697435
-0.0005155279
1.334117e-05
-0.0008894129
0.0006227348
-0.0008867086
6.13662e-05
-0.0006606666
-0.0002019261
-0.0002679219
-0.0004343972
0.000384019
-0.001003215
0.001091106
-0.001240146
0.001751977
-0.001164362
0.002227693
-0.0008076721
0.002491471
-0.0004163419
0.002607465
2.065051e-05
0.002226571
0.001120095
0.0007869545
0.002544777
-0.0007037229
0.002178461
-0.0008003496
-0.0002068951
-0.0002333917
-0.001078176
0.0002399224
-0.0008908467
0.0005428952
-0.0005801328
0.0007594518
-0.0004405001
0.0009588459
-0.0003813488
0.001128781
-0.0003277727
0.001342404
-0.0003981473
0.001559606
-0.0003390652
0.001751522
-0.00024247
0.001872237
-0.0001403363
0.001950074
-0.0001913101
0.002404372
-0.0009311116
0.003210021
-0.001054247
0.003483257
0.000334946
0.003027919
0.00106112
0.002513952
0.0004419562
0.002353201
-0.00022698
0.002482706
-0.0004717484
0.002735452
-0.0005125412
0.003041649
-0.0005432113
0.00336433
-0.0005624393
0.003713194
-0.0006134997
0.00407646
-0.0006284846
0.004424342
-0.0005585686
0.004748253
-0.000464969
0.005007207
-0.000333893
0.005196309
-0.0002407742
0.005356816
-0.000230893
0.00554748
-0.0003022769
0.005779875
-0.0003689903
0.006001485
-0.000331211
0.006191184
-0.0002664483
0.006362003
-0.0002373937
0.006631681
-0.0004187106
0.006742856
-0.0001685253
0.006851574
-0.0001433665
0.006961567
-6.817625e-05
0.007063172
2.480267e-05
0.007129067
9.531912e-05
0.007133962
0.0001506101
0.007060025
0.0002244931
0.006938406
0.0002584535
0.00678745
0.0003035113
0.006617323
0.000374514
0.006402855
0.0005206108
0.006142076
0.000650365
0.00582562
0.0007536684
0.005450734
0.0008209952
0.005016408
0.0008664831
0.004527513
0.000880453
0.003976555
0.0009007226
0.003378516
0.0009251964
0.002774825
0.0008857971
0.002101984
0.000969013
0.001291832
0.001162182
0.0004151026
0.001181085
-0.0003519717
0.0009001053
-0.0008779348
0.0004230436
-0.001205496
8.576645e-06
-0.001784243
0.000897579
-0.002133214
0.001252945
-0.001504023
-0.0002472643
-0.0005334862
-0.001432953
4.207646e-05
-0.001248845
0.001529142
-0.00374353
0.00214869
-0.002051211
0.01437296
-0.001075984
0.01757086
-0.002416071
0.0004553896
0.0005025239
-0.005309171
-5.255698e-05
0.001349006
-0.001547022
0.002524827
-0.000921726
-0.0009907748
-0.0008488938
-0.0001101902
-0.0004531076
-0.0006609882
0.0003312559
-0.001323262
0.0002803158
0.0002166829
-0.0004978523
0.001278169
-0.001131748
0.0008770403
-0.001849762
0.00122615
-0.002115569
0.0006667639
-0.00121241
-0.001495287
0.0006552847
-0.003377333
0.001984991
-0.002327196
0.003557242
-0.002808534
0.004657391
-0.002026884
0.005581026
-0.001030095
0.004675537
0.002635914
0.0009573458
0.005916773
-0.0002331005
0.001751365
0.002356082
-0.004156009
0.004825833
-0.004762817
0.004890856
-1.012144e-05
0.003762717
0.0026676
0.003096248
0.0008065218
3.518517e-06
0.002705327
-0.005691944
0.008055443
-0.009695126
0.007711211
-0.0108138
0.003586345
-0.01084175
0.001064181
-0.01067215
0.0001497358
-0.01037233
-0.0003354769
-0.009858301
-0.0008065532
-0.009211305
-0.001051783
-0.008397662
-0.001369002
-0.007377159
-0.001772349
-0.006235644
-0.002031713
-0.005110254
-0.002035179
-0.004157507
-0.001720774
-0.003315646
-0.001503032
-0.002508211
-0.001433407
-0.001787181
-0.001241769
-0.000831608
-0.001713514
8.03526e-05
-0.001692579
0.0008131031
-0.001249927
0.001630746
-0.001645282
-0.0009220355
0.0009451054
-0.01075616
0.02738191
-0.002740224
0.004140719
-0.0009905916
-0.007058803
-0.001310736
0.001669151
-0.002153598
0.003367689
-0.001252144
-0.001892229
-0.001142305
-0.0002200293
-0.0006877676
-0.001115526
0.0002121171
-0.002223147
0.0003732836
5.551635e-05
-0.0004340152
0.002085467
-0.00137163
0.001814655
-0.00228568
0.002140199
-0.002604243
0.0009853278
-0.001633439
-0.002466092
0.0005456271
-0.005556399
0.002222163
-0.004003732
0.004093927
-0.004680298
0.005402942
-0.0033359
0.006584314
-0.002211466
0.006639189
0.002581039
0.003927463
0.008628499
0.002233371
0.003445457
0.00414006
-0.006062698
0.00648612
-0.007108877
0.006229968
0.0002460305
0.00493344
0.003964128
0.002350108
0.003389854
-0.004301611
0.009357046
-0.010547
0.01430083
-0.01258044
0.009744652
-0.0127618
0.003767702
-0.01285364
0.001156026
-0.01276481
6.090474e-05
-0.01243714
-0.000663151
-0.01181362
-0.001430069
-0.01104536
-0.001820045
-0.01006709
-0.002347269
-0.008835414
-0.00300403
-0.007475257
-0.00339187
-0.006158471
-0.003351965
-0.005052113
-0.002827132
-0.00406578
-0.002489365
-0.003093741
-0.002405447
-0.002167682
-0.002167828
-0.0009675328
-0.002913663
0.0001185862
-0.002778698
0.001032998
-0.002164339
0.002064139
-0.002676423
0.002464338
-0.001322234
-0.0004456739
0.008608392
-0.001107993
0.0006342446
4.190607e-05
-0.00325952
0.001145425
-0.002944901
0.002166442
-0.002478
0.003070878
-0.00214953
0.003818274
-0.001701103
0.004369725
-0.001142613
0.00466494
-0.0004244227
0.004735381
0.0003706654
0.004680634
0.00116145
0.004210831
0.002614536
0.002493545
0.004609184
-8.128368e-05
0.004395331
-0.001530132
0.001644596
-0.001636322
-0.0003265759
-0.001352048
-0.0009973524
-0.001178853
-0.0009429389
-0.001330987
0.000165475
-0.001482875
0.0007746231
-0.001201667
-0.0002198426
-0.0007835551
-0.0006200375
-0.0002467003
-0.000971252
0.000523498
-0.001773413
0.001339665
-0.002056314
0.002113058
-0.001937755
0.002677058
-0.001371673
0.002987264
-0.000726548
0.003082752
-7.483694e-05
0.0029434
0.001259447
0.001888646
0.003599532
9.932371e-05
0.003967783
-0.0006872492
0.0005796778
-0.0004646292
-0.001300796
-0.0001822653
-0.001173211
-5.592933e-05
-0.0007064687
4.41159e-05
-0.0005405453
0.0001781553
-0.0005153882
0.0002869526
-0.00043657
0.0004868184
-0.000598013
0.0006975876
-0.0005498344
0.0008532712
-0.0003981536
0.001121151
-0.0004082158
0.001488329
-0.0005584881
0.002137838
-0.001580621
0.003139347
-0.002055756
0.003925454
-0.0004511608
0.003951739
0.001034835
0.003334957
0.001058738
0.002830271
0.0002777059
0.002789553
-0.0004310304
0.003048427
-0.0007714155
0.003416831
-0.0009116154
0.003798137
-0.0009437448
0.004192914
-0.001008277
0.004574875
-0.001010446
0.004910972
-0.0008946648
0.00523385
-0.0007878476
0.005549223
-0.0006492661
0.005869769
-0.0005613199
0.006202573
-0.000563697
0.006558176
-0.0006578802
0.006919267
-0.0007300808
0.007226697
-0.0006386409
0.007473417
-0.0005131683
0.007688838
-0.0004528149
0.00801063
-0.0007405028
0.008149453
-0.0003073485
0.008285133
-0.0002790459
0.008408039
-0.0001910822
0.008517675
-8.483401e-05
0.008610265
2.72975e-06
0.008661278
9.959689e-05
0.008636006
0.0002497649
0.008555468
0.0003389914
0.008429932
0.0004290471
0.008281512
0.0005229339
0.008103399
0.0006987243
0.007920242
0.0008335221
0.007726572
0.0009473384
0.007511486
0.001036081
0.007256686
0.001121282
0.006941769
0.001195371
0.006526985
0.001315506
0.005991953
0.001460228
0.005365294
0.001512456
0.004621183
0.001713124
0.003718096
0.002065268
0.002643272
0.00225591
0.001401188
0.002142189
5.238625e-05
0.001771845
-0.001210264
0.001271227
-0.00192254
0.001609855
-0.001765315
0.00109572
-0.0008616697
-0.00115091
-2.723115e-05
-0.002267391
0.0006455106
-0.001921587
0.002287066
-0.005385085
0.001755374
-0.001519519
-0.005656641
0.02178498
-0.006572812
0.0006771791
-0.005630473
-0.002677198
-0.004355385
-0.003176281
-0.003210855
-0.002729153
-0.002138319
-0.002627086
-0.001055221
-0.002654169
4.304234e-05
-0.002683032
0.001014537
-0.002329823
0.002017173
-0.002482111
0.002909804
-0.002193157
0.003977294
-0.002611359
0.004703132
-0.001669482
0.005201187
-0.001052472
0.005534666
-0.0004481278
0.005741621
0.000107659
0.005758498
0.0004863868
0.005563991
0.000708398
0.005287555
0.0006659811
0.005037228
0.0006022024
0.004757173
0.0009825256
0.004222589
0.001988431
0.003143482
0.00313513
0.001154607
0.004186954
-0.000988211
0.003577532
-0.002179121
0.001986359
-0.002411697
0.0006133822
-0.002269428
-0.0002280537
-0.002044688
-0.0002989084
-0.001870789
-7.859504e-05
-0.001427727
-0.00088868
-0.0008262015
-0.001467009
-0.000439832
-0.001083199
-0.0004161752
-0.0002979065
-0.0005583643
6.807077e-05
-0.0008064058
0.0003678333
-0.001046861
0.000564531
-0.001185817
0.0005577658
-0.0008976871
-0.0005046775
-0.0005002722
-0.000890012
0.0004088445
-0.002246443
0.001272112
-0.002115212
0.001442169
-0.0001727802
0.0002783865
0.002718152
-0.0001663528
0.0008807514
0.0017853
-0.004856002
0.002293812
-0.0006633432
0.002610824
0.0008908825
0.002915089
-0.003221322
-0.001695501
0.006151004
-0.01216241
0.02991236
-0.01256707
0.001098214
-0.01142754
-0.003363946
-0.01091529
-0.001285338
-0.01044312
-0.001282304
-0.01009167
-0.000949342
-0.009772404
-0.0008660199
-0.00950585
-0.0007354518
-0.009071776
-0.001103091
-0.008875555
-0.0005274782
-0.008698775
-0.0004651454
-0.008532228
-0.0004341693
-0.008379018
-0.0003946786
-0.008229302
-0.0003828208
-0.008086878
-0.0003637462
-0.007947426
-0.0003523697
-0.007818272
-0.0003221032
-0.007692557
-0.0003071476
-0.007572218
-0.0002935839
-0.007451481
-0.0002925058
-0.007336833
-0.0002758856
-0.007223224
-0.0002702612
-0.007113904
-0.0002568853
-0.007008877
-0.0002419385
-0.006903412
-0.0002435598
-0.006799899
-0.0002396848
-0.006696085
-0.0002402982
-0.006595595
-0.0002307099
-0.006497211
-0.0002197159
-0.006402769
-0.0002075582
-0.00630453
-0.0002159408
-0.006209532
-0.0002096089
-0.006110862
-0.0002178043
-0.006017248
-0.0002022809
-0.005922939
-0.0002000254
-0.005827645
-0.0002032333
-0.005731523
-0.0002048082
-0.005634179
-0.0002074068
-0.005537848
-0.0001999135
-0.005439279
-0.0001984859
-0.005460042
8.154707e-05
-0.005371408
-0.0001628091
-0.005289329
-0.0001619528
-0.005204054
-0.0001665145
-0.005121969
-0.000157583
-0.005036229
-0.0001644948
-0.004952227
-0.0001586341
-0.00486678
-0.000158381
-0.004781156
-0.0001575161
-0.004691013
-0.0001690282
-0.004599824
-0.0001711963
-0.004509758
-0.0001641727
-0.004418011
-0.0001633601
-0.004325739
-0.0001607552
-0.004226891
-0.0001765484
-0.00412396
-0.0001869092
-0.004020407
-0.0001850232
-0.003914667
-0.0001874604
-0.003801435
-0.0002040573
-0.003687038
-0.0002054533
-0.003563937
-0.0002259398
-0.003433584
-0.0002452503
-0.003294461
-0.0002666447
-0.003144217
-0.0002970895
-0.002964005
-0.0003806103
-0.002765094
-0.0004399245
-0.002551927
-0.0004818097
-0.002285614
-0.0006141916
-0.001945945
-0.0008076346
-0.001493107
-0.001140663
-0.0007844795
-0.001633122
0.0004295651
-0.002923961
0.001403099
-0.002142578
0.001966459
-0.001159056
0.002319204
-0.0007161046
0.002557111
-0.0004210143
0.002735455
-0.0003109019
0.002898546
-0.0003143135
0.003044333
-0.0002839626
0.003166409
-0.0002205522
0.003275911
-0.0001935258
0.003390694
-0.0002167879
0.003501516
-0.0002143463
0.003609776
-0.0002116236
0.003710138
-0.0001965032
0.003808746
-0.0001960629
0.003903435
-0.0001909053
0.003999979
-0.0001976489
0.004093427
-0.0001895702
0.004182887
-0.0001774846
0.004270085
-0.0001737576
0.004358733
-0.0001797395
0.004445051
-0.0001733844
0.004529013
-0.0001678842
0.004615593
-0.0001756361
0.004697523
-0.0001642621
0.004783174
-0.0001766897
0.0048701
-0.0001824643
0.004955802
-0.0001750842
0.005037415
-0.000163703
0.005121144
-0.0001693852
0.005204475
-0.0001721304
0.005291326
-0.0001691565
0.005266079
7.772693e-05
0.005364206
-0.0002044747
0.005463723
-0.0002144173
0.005562053
-0.0002131954
0.005660072
-0.0002134268
0.005758914
-0.0002183589
0.005857481
-0.000216032
0.005952374
-0.0002065317
0.006049941
-0.0002147135
0.00614718
-0.0002194322
0.006249217
-0.0002318325
0.006346082
-0.0002173247
0.006443897
-0.0002173774
0.006541443
-0.0002200969
0.006641973
-0.0002293168
0.006742021
-0.0002303449
0.00684608
-0.0002433172
0.00695181
-0.0002487237
0.007057669
-0.0002497481
0.007167171
-0.0002585241
0.007272463
-0.0002481648
0.007386643
-0.0002745026
0.00749993
-0.000276443
0.007617897
-0.0002878917
0.007737916
-0.0002978712
0.007861681
-0.000307801
0.007989859
-0.0003247534
0.008125489
-0.0003468048
0.008262193
-0.0003515258
0.008406663
-0.0003748986
0.008562433
-0.000410482
0.008733354
-0.0004612231
0.00912806
-0.0009923295
0.009354067
-0.0006249629
0.009618555
-0.0007196546
0.009909814
-0.0007913415
0.01029173
-0.001031588
0.01066855
-0.0009727649
0.01153269
-0.002484042
0.001768108
0.001618373
-0.0005021717
-0.003258779
0.002360244
-0.001900927
0.002815514
-0.001171375
0.003133499
-0.0007389993
0.003377393
-0.0005547954
0.003596772
-0.0005336926
0.003791988
-0.0004791792
0.003957764
-0.0003863282
0.00410551
-0.0003412716
0.004255841
-0.0003671192
0.004399267
-0.0003577722
0.004538842
-0.0003511986
0.004668434
-0.0003260954
0.004794835
-0.0003224638
0.004915789
-0.0003118593
0.00503785
-0.0003197091
0.005156314
-0.0003080346
0.005269473
-0.0002906432
0.005379786
-0.0002840707
0.005490864
-0.0002908176
0.005598747
-0.0002812674
0.0057033
-0.0002724371
0.00581058
-0.0002829166
0.005911388
-0.0002650698
0.00601622
-0.0002815222
0.006121959
-0.0002882027
0.006225749
-0.0002788746
0.006325039
-0.0002629931
0.006426254
-0.0002705996
0.006526583
-0.0002724601
0.006632592
-0.0002751654
0.006601467
0.0001088525
0.006717391
-0.0003203989
0.006836872
-0.0003338983
0.006953534
-0.0003298577
0.007069692
-0.0003295845
0.007186741
-0.0003354083
0.007303133
-0.0003324234
0.007415212
-0.0003186112
0.007530201
-0.0003297019
0.007644521
-0.0003337529
0.007764396
-0.0003517075
0.007878072
-0.0003310001
0.007992943
-0.0003322488
0.008107516
-0.0003346698
0.008225241
-0.0003470416
0.008342262
-0.0003473659
0.00846407
-0.0003651249
0.008587523
-0.0003721769
0.008711183
-0.0003734087
0.008839303
-0.0003866436
0.008961822
-0.0003706838
0.00909557
-0.000408251
0.009227242
-0.0004081148
0.009364408
-0.0004250574
0.009504251
-0.0004377147
0.009647483
-0.000451033
0.009796644
-0.0004739141
0.00995373
-0.0005038907
0.01011191
-0.0005097031
0.01027912
-0.0005421147
0.01046002
-0.0005913807
0.01088076
-0.0008819597
0.01112543
-0.001237001
0.01138616
-0.0008856915
0.01169559
-0.001029087
0.01204651
-0.001142262
0.01249672
-0.001481795
0.01301472
-0.00149077
0.0138173
-0.003286622
0.01331346
0.002271951
-0.01494867
0.01488425
0.001162637
-0.01385652
-0.004456095
-0.01315188
-0.001989984
-0.01258807
-0.001846109
-0.01215793
-0.001379483
-0.01177565
-0.001248307
-0.01145986
-0.001051235
-0.0111698
-0.001393151
-0.01070629
-0.0009909901
-0.01049674
-0.0006746938
-0.01029868
-0.000632236
-0.01011671
-0.0005766446
-0.009938764
-0.0005607669
-0.009769156
-0.0005333542
-0.009603066
-0.0005184592
-0.009448526
-0.0004766429
-0.009298434
-0.0004572404
-0.009154271
-0.0004377469
-0.009009555
-0.0004372215
-0.008871838
-0.0004136023
-0.008735506
-0.000406593
-0.008603552
-0.0003888391
-0.008477173
-0.0003683178
-0.008349905
-0.0003708277
-0.008224887
-0.0003647034
-0.008099685
-0.0003655