/*--------------------------------*- C++ -*----------------------------------*\
| =========                 |                                                 |
| \\      /  F ield         | OpenFOAM: The Open Source CFD Toolbox           |
|  \\    /   O peration     | Version:  2406                                  |
|   \\  /    A nd           | Website:  www.openfoam.com                      |
|    \\/     M anipulation  |                                                 |
\*---------------------------------------------------------------------------*/
FoamFile
{
    version     2.0;
    format      ascii;
    arch        "LSB;label=32;scalar=64";
    class       volScalarField;
    location    "0.48";
    object      p;
}
// * * * * * * * * * * * * * * * * * * * * * * * * * * * * * * * * * * * * * //

dimensions      [0 2 -2 0 0 0 0];

internalField   nonuniform List<scalar> 
4529
(
-2.173055e-06
-2.34023e-06
-1.284156e-06
-5.624448e-06
-2.593034e-06
-8.118222e-06
-1.525272e-06
-3.144229e-06
-2.659129e-06
-1.329404e-06
1.63256e-06
-1.283863e-06
-3.411689e-07
-1.040401e-06
-1.011516e-06
-3.474189e-07
-2.891047e-06
-1.212079e-06
2.651083e-07
-2.33405e-06
-1.970481e-07
-1.014911e-06
-9.375833e-07
-1.759809e-06
-1.562818e-07
-2.218521e-06
-4.825022e-06
-3.697262e-06
-4.020207e-06
-4.813067e-06
-4.594723e-07
-1.14623e-06
-7.155535e-07
-2.05228e-07
5.530786e-07
-1.942229e-06
-1.678778e-06
-2.244902e-06
-5.016062e-06
-1.024774e-06
-7.771157e-07
-6.538537e-07
-1.535639e-06
-2.616031e-07
9.220398e-09
-1.444155e-07
-1.196854e-06
-1.991921e-06
2.616286e-07
-2.413238e-06
-6.269972e-06
-1.570171e-06
-7.527397e-06
-4.093729e-07
-3.482463e-06
-3.029242e-06
-2.403774e-06
2.62636e-06
-7.118634e-06
-8.417019e-06
-3.558283e-06
-2.346697e-08
-8.031752e-07
-8.514511e-06
-1.685042e-06
2.177335e-07
-2.021111e-06
-9.995319e-07
-1.597522e-06
2.072242e-06
-1.777111e-06
-2.13064e-06
-3.961172e-06
-6.149761e-07
-9.284165e-06
-5.958686e-06
-7.499957e-07
1.100835e-06
-7.859194e-06
-2.403572e-06
-3.881458e-06
-1.700726e-06
4.573965e-07
-2.037801e-06
-2.068994e-06
-6.387614e-07
-3.81834e-08
3.298781e-07
-2.157872e-08
-2.695744e-06
-8.156289e-06
-7.486912e-07
3.315654e-07
-1.393212e-06
-9.584969e-07
-1.395182e-06
-6.014457e-06
-4.38914e-06
-6.356679e-06
-3.224472e-06
-1.025583e-06
-5.456828e-06
-2.140347e-06
-4.068275e-06
-1.20533e-06
1.472994e-07
-7.305288e-06
2.53008e-07
9.641035e-07
-9.268225e-07
-1.623551e-07
-1.168584e-06
-4.9181e-06
-4.64815e-06
-4.052649e-06
-9.128023e-07
-1.776806e-06
-3.27746e-06
-1.495107e-06
-6.035281e-07
-3.249461e-06
-2.019985e-06
-1.321117e-06
-1.985447e-06
-9.409543e-07
-2.673569e-06
-3.329143e-06
1.28064e-07
-6.645277e-07
-4.912886e-06
-1.702678e-06
-4.151169e-06
-9.260755e-06
-6.905069e-07
-8.473481e-07
2.710078e-07
4.020774e-07
-3.283755e-07
-1.672965e-06
-2.514726e-06
-3.649431e-06
-2.739624e-06
-1.111308e-06
-3.692332e-06
-5.420685e-06
-3.082126e-06
-1.019173e-06
-3.415118e-06
-2.94961e-06
-1.745227e-06
-1.884308e-06
-4.223474e-06
-3.915525e-06
-7.631803e-07
-4.888436e-06
-6.538489e-07
-4.336845e-07
-3.371824e-06
-1.323991e-06
-1.22571e-06
5.208472e-07
-4.41859e-07
-5.926355e-06
-4.540367e-06
-1.489778e-07
-8.473261e-08
-2.601686e-07
-2.511041e-06
-4.203941e-06
-2.200567e-06
-6.848548e-06
-1.571698e-06
-9.596994e-06
5.174245e-08
-7.667436e-07
-3.349067e-06
-2.408317e-06
-8.894054e-06
-9.641364e-06
3.327098e-07
1.687259e-07
-2.835512e-06
-1.71774e-06
-1.853177e-06
1.687347e-06
-1.025394e-05
-2.505405e-06
-7.349068e-07
-5.37923e-06
-9.117474e-07
-2.149583e-06
-7.67971e-06
1.007017e-06
-4.469717e-06
-1.65436e-06
1.205132e-07
2.04577e-07
-5.0582e-06
1.435735e-06
-1.521174e-07
-1.353819e-06
8.722098e-07
-1.512791e-06
-7.605557e-06
-8.853396e-07
-2.028622e-06
-6.167958e-06
-2.374677e-06
-2.98683e-06
-8.452517e-06
-2.250079e-07
-3.03924e-06
-1.200361e-06
-5.041468e-06
-2.484315e-06
-2.870589e-06
-1.936517e-06
-1.070014e-06
-2.187047e-06
5.264564e-06
-2.906265e-06
-3.647539e-07
-2.519276e-06
-6.601669e-07
-1.489144e-06
7.563259e-07
-8.067677e-07
-2.629725e-06
-7.067124e-06
-8.549235e-07
-5.548802e-06
-7.969076e-06
-1.206837e-05
-7.0078e-07
-2.96732e-06
-3.480064e-06
-2.641981e-06
-4.890683e-06
5.18187e-08
-1.580944e-06
-2.676468e-06
-5.134889e-08
-5.222768e-07
-6.195192e-06
1.476556e-06
-3.455707e-06
-8.200669e-06
-9.788918e-07
-1.736388e-06
9.676003e-08
-6.125239e-06
8.057629e-07
-3.023654e-06
3.005883e-06
-4.487983e-07
-1.64497e-06
-4.356613e-06
-6.839612e-06
-5.259951e-06
-1.073373e-06
1.001538e-06
-6.919191e-07
-1.042936e-06
-1.331084e-06
-1.36747e-06
-5.695075e-06
-1.592518e-06
-5.275161e-06
-2.96404e-06
-5.513101e-07
-2.215097e-06
-4.794689e-07
-1.503314e-06
-4.98162e-06
-7.029213e-06
-3.146434e-07
-3.599587e-07
-1.165172e-07
-5.669049e-06
-1.232149e-05
-1.329495e-06
-1.488505e-06
-3.406354e-08
-3.706508e-06
4.808367e-10
-1.461751e-06
-2.349768e-06
-3.217125e-07
-2.909623e-06
-1.220333e-06
-5.238497e-06
-8.937771e-07
-9.967797e-07
-1.51087e-06
-2.345101e-06
-9.894505e-07
-1.076942e-06
-3.216215e-06
-1.157531e-06
-2.030333e-06
-1.085318e-06
-1.580834e-06
-2.822779e-06
2.653774e-06
-2.017803e-06
-3.169417e-06
-4.968973e-06
-9.301061e-07
-3.411605e-06
-1.231506e-06
-9.276413e-07
-2.129675e-06
3.771711e-07
-1.509818e-06
-3.639293e-06
-1.87915e-06
-1.553733e-06
-1.174674e-06
-8.005658e-06
8.391951e-07
-1.167045e-06
1.082114e-06
-2.166218e-06
-3.735043e-06
-1.569981e-06
-3.205449e-06
-4.128338e-06
-3.929043e-07
-7.567712e-07
-4.728641e-07
-1.579716e-07
-5.892795e-07
-4.502703e-07
-6.445068e-07
-5.170276e-07
-4.687224e-06
-3.930734e-06
-3.012588e-06
-3.504279e-07
-8.203185e-07
-9.084884e-07
-4.376368e-06
1.618482e-06
-4.954535e-06
-5.251328e-06
5.198622e-07
-1.749792e-06
-6.481341e-06
-4.731808e-06
-1.361412e-06
-1.258028e-06
1.772845e-06
-1.395798e-06
-1.465879e-06
-5.049466e-07
-3.252312e-06
-4.461957e-06
3.262039e-06
-1.712955e-06
-8.500121e-07
-5.741091e-07
-1.346938e-06
-2.56601e-06
-7.694007e-07
-3.823875e-07
-4.760053e-07
-4.66261e-07
-2.753546e-06
-1.566092e-06
-3.101128e-06
-2.017329e-07
-8.106147e-07
-2.413436e-06
6.135115e-07
-1.671501e-06
-2.601945e-07
7.39708e-07
-6.811432e-06
-9.464623e-06
-2.320731e-06
-9.518047e-07
-1.62545e-07
4.536625e-07
-2.037236e-07
-1.327176e-06
-2.134486e-07
-5.304839e-06
1.539739e-06
-2.762774e-06
-7.342929e-08
-6.923809e-06
2.491333e-07
3.185015e-06
-2.195648e-06
-2.131604e-06
-2.234473e-06
-2.452941e-06
-3.45321e-06
-3.121727e-06
-3.218101e-06
-1.612547e-06
8.932542e-07
-6.429456e-06
-5.976133e-06
-6.252376e-06
-1.136697e-06
-6.319196e-06
-1.9838e-07
4.431289e-07
-1.685797e-06
-2.679649e-06
-1.100506e-06
-4.842626e-06
-2.022781e-06
-3.687773e-07
-1.129266e-06
-6.760172e-07
-2.773657e-06
-5.044495e-07
4.886259e-07
-7.153494e-06
-2.894459e-06
-6.983713e-06
-3.851698e-06
-9.636397e-06
-7.74027e-06
-6.061979e-06
-3.067618e-06
-2.470359e-06
-2.191498e-06
-5.255637e-07
-6.903212e-07
-9.401004e-06
-7.508996e-06
8.127548e-07
-1.167212e-06
5.181252e-07
6.849041e-08
-2.435335e-06
2.804758e-08
-2.571734e-06
-5.351477e-07
-6.356832e-06
-1.498238e-06
-1.387905e-06
-1.418251e-06
2.673801e-07
-1.46767e-06
-1.301634e-06
-2.339025e-06
-3.506363e-06
-2.458646e-06
-2.257078e-06
-1.427744e-06
-1.224334e-06
-5.683375e-06
-9.650754e-07
-5.092638e-06
-1.261992e-06
-9.855787e-07
-2.791593e-07
-1.930294e-06
-1.309424e-06
1.295924e-06
-5.133459e-06
-3.511338e-06
-6.984864e-07
-4.915256e-07
-3.760525e-07
-3.896434e-07
-3.149252e-07
1.152682e-06
-2.068766e-06
-1.459329e-06
-4.22217e-06
-9.360405e-08
-4.449938e-06
-1.279997e-06
9.051836e-09
-9.7357e-07
3.112077e-07
-2.169081e-06
-3.05882e-06
-4.438745e-07
-2.074426e-06
3.015825e-07
-2.716042e-06
1.854495e-07
-1.830107e-06
-4.20559e-06
-1.223783e-05
-2.097087e-06
-2.083763e-06
-3.55685e-07
-1.242528e-06
-2.684406e-06
-2.513193e-06
-3.245847e-06
-1.566885e-06
-4.533385e-06
-2.462952e-06
-6.204051e-07
-3.01364e-06
-4.625439e-06
-1.481621e-06
-7.601928e-07
-3.519083e-07
-3.427298e-07
-3.536283e-07
-5.508811e-07
-3.60402e-07
-6.610647e-07
-3.360138e-06
9.546283e-07
-9.640587e-07
-4.039e-06
-1.187176e-06
-2.249094e-06
-1.244641e-07
-1.15473e-06
-1.161367e-06
-2.016941e-07
-2.240499e-06
-9.625782e-07
-1.145449e-06
-2.67734e-08
-8.407924e-07
-2.155458e-06
3.177733e-07
1.33885e-08
-1.472068e-06
-8.212666e-07
-7.2059e-07
-8.348284e-07
-3.666685e-07
-4.415894e-06
6.104048e-08
1.591538e-07
-3.934052e-08
1.529755e-06
-1.07434e-05
-5.665189e-07
1.527327e-06
-6.318279e-07
-3.510263e-06
-2.122473e-07
-1.448674e-06
-2.950014e-06
-1.153857e-06
1.580876e-06
-2.400522e-06
-1.61255e-06
-1.863528e-06
-2.210261e-06
-1.192654e-06
-2.125237e-06
-5.130716e-06
-4.853573e-06
1.066078e-06
-3.578552e-06
-1.32604e-07
-1.117274e-06
-3.754012e-06
-7.03352e-06
-3.835843e-06
-5.334613e-07
-1.144099e-06
-4.530254e-06
-3.567431e-06
-6.479638e-06
-1.146489e-06
7.982352e-07
3.547316e-08
-3.653061e-06
-1.970427e-06
-2.384293e-06
-2.167801e-06
-3.990213e-06
-3.205441e-07
-2.623045e-08
-2.491812e-06
-4.123527e-06
-2.722759e-06
-1.083252e-06
-1.299358e-06
-3.183454e-06
-1.287454e-06
-3.788485e-06
-1.481019e-06
-8.336371e-07
3.123937e-07
-3.567065e-06
-1.545268e-06
3.600791e-06
-3.628286e-06
-1.065182e-06
-2.175311e-06
-2.09508e-06
3.861277e-07
8.794135e-07
-2.045243e-07
-1.593848e-06
-1.253823e-07
-8.661281e-07
-6.70424e-07
-1.37117e-07
-2.985147e-08
-1.476151e-06
-1.6825e-07
-2.244453e-06
-6.391578e-06
-1.688989e-06
-2.032599e-06
-1.005938e-06
-1.516556e-06
2.584061e-06
3.828428e-07
-3.778781e-08
-5.849891e-06
-9.909072e-07
-7.52846e-07
-4.037528e-06
-4.258038e-06
-6.533822e-07
-4.538216e-06
-4.110148e-07
2.039443e-07
-1.356899e-06
-3.978262e-06
-1.095162e-06
-3.925932e-06
-6.520072e-06
-6.534094e-06
-1.028453e-06
-6.408596e-07
2.201261e-07
6.658454e-07
-1.020041e-06
-1.975467e-06
-1.435695e-06
-8.946789e-07
-6.765344e-08
8.169018e-07
2.954296e-06
-2.854028e-06
-2.39939e-07
-2.705236e-06
-3.868799e-06
-4.320392e-07
-1.803856e-06
1.01039e-07
-4.370336e-06
-4.141404e-06
-6.4837e-06
-1.26853e-06
-2.058805e-06
-2.65946e-07
-5.557631e-06
-8.400072e-07
-9.488169e-06
-1.55036e-06
-2.184369e-06
-5.252422e-06
-1.174523e-06
-4.638403e-06
-3.174189e-06
-2.461274e-06
-1.483556e-06
-9.776858e-06
-1.58721e-06
-1.8994e-06
7.543209e-07
-1.451866e-06
-1.464535e-07
-3.789918e-06
-1.093348e-06
-1.130231e-06
5.687046e-07
-2.983756e-06
-1.545458e-06
-1.142206e-06
-1.353342e-06
-1.553829e-06
-1.483963e-06
4.7475e-07
-3.654241e-07
9.727729e-07
-2.187737e-06
-1.26477e-06
-6.670288e-06
-2.906658e-06
-2.490218e-06
-3.616655e-06
-3.754579e-06
-6.242969e-07
-6.527591e-07
-8.353449e-07
-4.456384e-06
-5.579187e-06
-6.175812e-07
-7.166177e-07
-5.915924e-07
-9.645473e-06
-1.010521e-06
-1.434555e-07
1.740954e-06
-2.427813e-06
-1.714321e-06
-1.53346e-06
-7.60312e-06
-6.801296e-06
-2.150167e-06
-6.831435e-06
-1.028131e-06
-1.791388e-06
-5.441881e-06
-1.13066e-06
-1.728476e-06
-2.639993e-06
-1.653588e-06
-5.687965e-06
-1.18763e-06
-2.612942e-06
-1.370629e-06
-6.414186e-07
-3.959303e-06
1.11267e-06
2.573583e-07
2.61377e-06
-1.703566e-06
-1.637736e-06
-2.707965e-06
-1.823098e-06
-1.26759e-06
-3.077359e-06
-2.698951e-06
-1.538898e-06
-5.917394e-06
-2.430254e-06
-6.789394e-06
-2.612063e-07
-6.008812e-06
-6.286179e-06
-8.245671e-06
-5.585991e-06
-1.943926e-06
-1.13562e-06
-1.465688e-06
-1.349288e-06
-9.068074e-06
-1.366811e-06
-2.094968e-06
-6.649835e-06
-2.389627e-06
-5.426448e-06
-2.53435e-06
-9.208085e-07
-1.065804e-05
-8.13886e-06
-9.160632e-06
-5.253266e-06
-4.043934e-06
-1.737655e-07
-7.437547e-06
-1.128495e-06
-5.246776e-06
-6.815472e-06
-1.752434e-06
-4.876421e-06
-5.026853e-06
-3.392432e-06
-5.831554e-06
-7.462822e-06
-2.841097e-06
-2.003644e-06
-1.043204e-06
-2.587945e-07
-4.206568e-07
-3.611766e-06
-4.329389e-06
-9.963176e-06
-2.701663e-06
-7.753261e-07
-1.493909e-06
-7.6888e-07
-1.202751e-06
-6.363632e-06
-3.065816e-06
-1.426666e-06
-1.115872e-06
-2.613376e-06
-1.366494e-06
-4.543757e-06
1.289169e-08
-1.628908e-06
-6.800223e-07
-1.279838e-06
-7.491086e-06
-2.187013e-06
-2.248421e-06
2.663967e-07
-1.219748e-06
-5.54914e-06
-9.929012e-06
-3.073185e-06
-2.095489e-06
-1.21961e-06
-1.79167e-06
-1.315378e-06
-9.594145e-09
-7.928349e-07
-1.100205e-06
-4.086282e-07
-1.187713e-06
-1.309388e-06
-2.194548e-06
-1.460294e-06
-1.404219e-06
-3.507682e-06
-4.380676e-07
-8.195597e-07
-5.569473e-06
-1.173284e-05
-1.630958e-08
6.173637e-07
-1.874302e-06
-1.241429e-06
-8.78135e-07
-6.02333e-07
-2.984148e-06
-1.887707e-07
-9.209199e-07
-2.841031e-06
-2.939808e-06
-1.736546e-06
1.413832e-07
3.253745e-07
-3.394646e-06
-2.881962e-07
-3.441643e-06
-2.228172e-06
-4.466586e-06
-2.544511e-06
-6.099819e-06
-3.513766e-06
-7.453163e-06
-7.255368e-06
-3.687963e-06
-4.900908e-06
-1.357661e-06
2.446799e-07
6.396964e-07
-1.322328e-06
-1.698482e-06
-1.437123e-06
-2.423763e-06
-1.177979e-06
-1.315673e-06
-1.297965e-06
-1.469648e-06
-4.059649e-06
-2.518198e-06
-3.790697e-07
-1.672717e-06
-8.178518e-07
-1.261644e-06
-7.547181e-06
-5.058395e-06
-4.58421e-06
-6.446996e-06
-5.842563e-06
-3.39733e-06
-2.644256e-06
-8.12642e-06
-3.124408e-06
-6.360852e-06
6.829307e-07
-6.910449e-06
-6.555176e-07
-2.201568e-06
-1.63132e-07
-5.45114e-06
-9.549601e-07
-3.727437e-06
-5.658748e-06
-8.724332e-06
-3.393792e-06
-2.664644e-06
-1.959599e-06
-9.680579e-07
-1.295981e-06
-4.284459e-07
-3.772653e-06
-3.910632e-06
-2.2704e-06
-7.016422e-06
-7.687894e-06
-6.753057e-06
-5.61304e-06
-9.007354e-06
-6.502297e-07
-1.317809e-06
-2.362805e-07
-6.87227e-08
-1.988561e-06
-1.674137e-06
-2.674653e-06
-2.105653e-06
-5.347222e-06
-4.305041e-06
-3.932258e-06
-5.557795e-06
-4.911837e-06
-2.965375e-06
-3.789306e-06
-5.68328e-06
-4.137789e-06
-7.070348e-09
-8.92299e-08
-5.052968e-06
-6.949893e-06
-8.922317e-06
-6.856222e-06
-2.162096e-06
-2.297066e-06
-8.644921e-06
-9.336515e-06
-9.669176e-06
-2.109245e-06
-1.840751e-07
-4.856969e-06
-5.287269e-06
-9.703978e-07
-1.275729e-06
-1.017884e-06
-3.715832e-06
-7.072955e-06
-4.931753e-06
-5.084911e-06
-4.734801e-06
-5.096528e-06
-6.333202e-06
-5.618168e-06
-1.455639e-07
-5.611452e-06
-6.226491e-06
8.959964e-07
-4.332805e-06
-3.28191e-06
-3.439571e-06
-5.96123e-06
-2.850982e-06
-1.072381e-06
-5.34683e-06
-8.43282e-06
-8.27244e-07
-2.76821e-07
-8.064927e-06
1.065149e-06
-5.298039e-06
-1.204379e-06
-2.37553e-06
-4.789591e-06
-1.832021e-06
-4.181888e-07
-3.488404e-07
-5.737812e-06
-2.864152e-06
-4.683549e-06
-6.752673e-06
-3.669741e-06
-4.018121e-06
-4.185838e-06
-5.3959e-06
-1.403872e-06
-2.099977e-06
-2.384251e-06
-1.834244e-06
-4.023522e-06
-9.85639e-06
-8.522065e-06
-3.072586e-06
-9.950478e-07
-8.245551e-06
8.717907e-07
-7.140375e-06
-2.175561e-06
1.765248e-06
-3.050561e-07
-3.504339e-06
-8.606244e-06
-5.548434e-07
-3.925093e-07
-1.063642e-06
-6.080209e-06
-1.024265e-05
-1.38508e-06
-1.400868e-06
2.449136e-06
-2.15631e-06
-1.769675e-06
1.42325e-06
-1.614526e-06
3.8164e-07
-5.060705e-06
-2.103224e-06
-4.344575e-06
-8.228144e-07
-1.077257e-06
-4.343268e-06
-1.032959e-05
-5.579906e-07
-7.967174e-06
-5.349715e-06
-5.157011e-06
-2.901207e-06
-8.617136e-07
-5.606807e-06
-1.701957e-06
-2.122398e-06
-2.027544e-06
-2.067302e-06
1.206339e-06
-9.990785e-06
-9.870954e-06
-7.845128e-06
-1.148237e-05
-1.001819e-05
-1.001969e-05
-1.230412e-05
-3.766223e-06
-7.452514e-06
8.532446e-08
2.139643e-07
-1.038515e-07
2.628701e-08
-3.807517e-06
-2.58792e-06
-5.679438e-06
-1.41181e-06
-1.147786e-06
-1.241091e-06
-1.734208e-06
-1.368654e-06
-6.488922e-07
-3.11351e-07
-4.436947e-07
-1.723953e-07
-3.39385e-07
-3.26953e-07
-4.743179e-06
-2.194139e-06
-9.481081e-07
-5.200133e-07
1.585213e-06
-1.01271e-06
-2.383413e-07
-2.016512e-06
-6.097456e-06
-1.601102e-06
-6.974282e-06
-8.822389e-06
-6.183831e-06
-2.645764e-06
-1.920926e-06
-5.208436e-06
-3.308786e-06
-6.980561e-06
-3.212748e-06
-7.402587e-07
1.32471e-06
-2.769144e-06
-4.101548e-06
-7.802935e-07
-9.229319e-07
4.273828e-07
-1.702297e-06
-8.761323e-07
-9.550619e-07
-1.083607e-06
-4.258235e-07
-2.262612e-07
-6.131471e-07
-7.68926e-08
-1.495202e-06
-1.5966e-08
-4.802487e-07
-5.482704e-07
-5.131254e-08
-1.368069e-07
-8.715776e-08
-2.881963e-06
-1.849494e-06
-2.423884e-06
-6.91399e-06
-9.041196e-06
-6.089165e-06
-1.156667e-06
-9.446993e-06
-6.101802e-06
-8.03725e-06
-1.013971e-06
-1.302364e-06
-4.703031e-06
6.894423e-07
-3.393563e-07
-1.967612e-06
-1.506258e-06
-1.261633e-06
-2.257918e-06
-1.762297e-06
-2.498344e-06
-1.161575e-07
-3.4289e-06
6.323937e-07
-6.995457e-07
-6.799956e-07
-1.305436e-06
-1.350603e-06
-1.4964e-06
-6.547593e-06
-1.870418e-06
-2.463677e-06
-3.435158e-06
-4.062091e-06
-4.491744e-06
-5.36103e-06
-9.098485e-06
-9.081335e-06
-9.23284e-07
-9.207753e-06
-1.497353e-07
8.894731e-08
-6.358531e-08
-2.503402e-07
-9.960692e-08
2.499723e-07
-6.434365e-06
-6.233159e-06
-1.492095e-06
-3.452757e-06
-3.04673e-06
-5.243314e-06
-1.766754e-06
-1.922489e-06
-1.936018e-06
-6.012042e-06
-5.365938e-07
-9.478018e-06
-3.0894e-06
-1.593293e-06
-3.678682e-07
-1.801651e-06
-2.510674e-06
-5.812344e-07
-6.363478e-07
-3.29552e-06
-1.265395e-06
-1.80454e-06
-2.359594e-06
-2.137852e-06
-1.641298e-06
7.911937e-08
-2.695153e-06
-2.659842e-06
-2.134643e-06
-1.340043e-06
-2.547497e-06
-2.660768e-06
-1.401256e-06
-6.079538e-07
-5.069672e-06
-7.539873e-07
-5.520997e-06
-2.534595e-06
-3.674534e-06
-3.488213e-06
-8.450236e-07
-1.975686e-06
-2.085859e-06
-6.565621e-06
-1.397549e-06
-2.779058e-07
-1.200025e-06
-5.681725e-06
-1.3669e-06
-1.543588e-06
-3.385988e-07
-5.640421e-07
-1.663548e-06
-1.554662e-06
6.73786e-07
-6.073812e-06
-8.626564e-06
-6.581858e-06
-1.42149e-06
6.43421e-07
5.948429e-07
-1.044892e-06
-7.379987e-07
-1.262284e-06
-6.940664e-07
-2.165822e-06
-1.267254e-06
-2.131086e-06
-4.175547e-06
-4.505648e-06
-2.248148e-06
-2.387738e-06
-2.949369e-06
-9.553082e-07
-1.773927e-06
-2.206559e-06
-6.555285e-06
-4.314343e-06
-3.947422e-06
2.247612e-07
1.191101e-06
-4.774123e-07
-4.22272e-06
-5.785348e-06
-1.082941e-06
-6.456114e-07
-1.816152e-06
-1.049841e-06
-6.655478e-07
-1.115451e-06
-6.036166e-07
-4.098832e-08
-1.062884e-06
-4.992121e-07
-7.643773e-07
-1.972409e-06
-1.155289e-06
-5.081352e-06
-2.135853e-06
-1.335807e-06
-2.607998e-06
9.181616e-08
-8.160341e-07
-6.199591e-07
-9.855924e-07
-5.076623e-06
-6.134786e-06
-1.236271e-06
-8.531632e-07
-1.269784e-06
-5.784619e-08
-1.794434e-06
3.257577e-08
-3.541367e-06
-2.683805e-06
-3.09359e-06
-1.014637e-05
-6.518693e-06
-1.080184e-06
-4.58919e-06
-7.161808e-06
-7.125828e-06
-8.442425e-07
-5.651372e-07
-1.212263e-06
-3.560131e-07
-2.71954e-06
-5.159561e-07
1.544022e-07
-1.758978e-06
-9.900962e-06
-6.886568e-07
-1.602951e-07
-1.350393e-06
-1.059094e-06
-2.047602e-06
-8.276229e-07
-4.116683e-06
-6.11358e-06
-1.541666e-06
-4.634263e-06
-4.073473e-07
6.066016e-08
-8.08049e-07
-8.454567e-06
-1.44177e-06
-2.079197e-06
-8.291958e-07
-2.004069e-06
2.298545e-06
-2.25493e-06
-4.64124e-06
-4.688785e-07
-2.300979e-06
-1.874257e-06
2.833686e-07
-7.828024e-08
-2.230097e-07
-1.114708e-06
-3.054502e-07
-2.235017e-07
-6.75152e-07
-8.082043e-06
-6.450397e-07
-4.191927e-07
-2.047791e-07
-6.811999e-07
-1.226974e-06
-5.784868e-07
-5.840726e-07
-3.580024e-07
-8.927457e-07
-6.735682e-07
-1.276889e-07
-7.467614e-07
-2.221666e-06
-5.191699e-07
-6.019804e-07
-1.456422e-07
-8.564826e-07
-7.407942e-07
-7.857034e-07
-8.555214e-07
4.692315e-07
-8.397577e-07
-4.33343e-06
1.117956e-06
9.007399e-07
-1.87297e-06
-4.176598e-06
-3.012967e-06
-4.318957e-06
-1.317223e-06
-6.902703e-06
-2.01983e-06
-6.613725e-07
9.312834e-07
-9.430107e-08
-5.075664e-07
-2.163666e-07
-1.641993e-06
-8.234351e-07
-3.724461e-06
-3.268446e-06
-8.927245e-06
-3.588438e-06
-3.055415e-06
-3.183142e-06
-2.127628e-06
-3.529731e-06
-3.154596e-06
-4.149371e-06
-3.278186e-06
-2.669419e-06
9.903745e-08
-6.316498e-06
-5.069682e-06
-2.759267e-06
2.903621e-07
-5.956906e-06
3.489976e-07
-1.542681e-06
1.029801e-07
-5.854253e-06
-4.875867e-06
-5.955382e-06
-8.960482e-06
-8.816897e-06
-3.065723e-06
-1.183816e-06
-1.339035e-06
-1.440998e-06
-1.290166e-06
-2.735072e-06
-2.665389e-07
-7.376725e-06
-1.936281e-06
-6.801779e-07
-2.456297e-07
9.886844e-07
-5.471207e-06
-7.209527e-06
-4.774843e-06
-5.062415e-06
-4.715029e-06
-4.85729e-06
-2.867646e-06
-1.522749e-06
-3.913096e-06
4.080482e-07
-8.27485e-08
-7.748537e-07
-5.55587e-06
-4.94936e-06
-5.709168e-06
-5.259468e-06
-3.093206e-06
-5.214025e-06
-6.993078e-06
-7.123509e-06
-5.908806e-06
-4.288389e-06
-1.706447e-06
-4.829575e-06
-8.575934e-07
-8.787753e-06
1.348238e-07
-3.529163e-07
-5.050016e-06
-5.381518e-07
1.060669e-07
1.213113e-06
-1.966438e-06
2.317544e-06
1.737537e-06
-2.314009e-06
-5.166071e-06
-8.608191e-06
3.861625e-07
-2.942136e-08
-1.664172e-07
-4.782016e-07
-5.96468e-06
-5.489736e-06
-5.80046e-06
-4.962961e-07
-1.721552e-07
-5.960929e-06
-8.867128e-06
-9.030761e-06
-3.95448e-06
-3.231949e-06
-6.346429e-06
-7.788097e-06
-1.859168e-06
-2.832797e-06
-4.105555e-06
-2.884554e-06
-2.543618e-06
-8.146247e-07
-9.79995e-06
-3.029952e-09
-1.341378e-06
1.048288e-06
-2.371785e-07
-2.235749e-06
2.196709e-07
-3.670703e-06
-1.156039e-07
-6.857576e-06
-1.276783e-06
-2.761229e-06
4.172752e-07
-1.886551e-06
-3.750217e-08
-6.375592e-07
-1.560662e-06
-2.480382e-06
-1.45766e-06
-1.505349e-06
-1.829483e-06
-1.12668e-06
-1.187754e-06
-2.040262e-06
-7.089715e-06
-2.841416e-06
-1.705313e-06
-3.836413e-06
7.078422e-07
7.434379e-07
-5.478919e-06
-1.528045e-07
-4.043824e-06
-2.19907e-06
-1.785478e-06
-8.809255e-07
-1.336859e-06
1.880048e-06
-4.082411e-07
-6.209714e-08
-5.358673e-06
3.669686e-06
-9.175544e-07
-3.47041e-06
-1.133127e-06
-1.149727e-06
-8.061368e-07
-8.740768e-07
-1.685317e-06
-1.068382e-06
-9.308002e-07
3.162694e-06
-9.02848e-08
-1.061976e-07
-1.50722e-06
-2.218748e-06
-2.96628e-06
-1.142238e-06
-1.652518e-06
-3.916001e-07
2.629169e-08
2.979934e-07
-6.938376e-07
-1.185681e-06
1.856353e-06
1.309572e-06
-8.005119e-07
2.592615e-07
-1.645792e-07
-1.157927e-06
-1.331666e-06
-2.291318e-06
-1.232772e-06
-9.047759e-07
-9.860991e-07
-5.376572e-06
-7.546769e-07
-9.428587e-07
6.764037e-07
8.540021e-07
-5.886767e-06
-1.54748e-06
-2.040453e-06
2.771787e-07
-7.770721e-09
-8.93089e-06
-3.240774e-06
-4.449845e-06
-5.071792e-06
-9.371759e-07
-1.325774e-06
-1.622933e-07
-1.395782e-06
-1.032083e-05
6.09902e-07
-5.05939e-06
1.21398e-06
-5.569554e-07
-1.471693e-06
-1.553814e-06
-4.045226e-07
-4.844588e-07
-3.06272e-06
-8.283959e-07
2.207336e-07
1.773928e-07
-6.108627e-06
-8.176931e-06
-1.759903e-07
-9.125621e-08
-2.629817e-06
-5.957009e-07
-3.034606e-07
-3.917412e-06
-1.050605e-05
-4.287175e-07
-8.724472e-08
-2.378023e-06
-5.302118e-06
-5.943837e-06
-4.474728e-06
-6.12013e-07
-6.735801e-07
-2.853929e-06
-1.956987e-06
-4.529354e-07
-5.009813e-07
-1.196121e-07
-5.848167e-07
3.035743e-07
1.245899e-06
1.145799e-06
-1.666894e-07
-2.64864e-06
-4.468909e-06
-3.553457e-06
-3.418418e-06
1.337418e-06
-7.267933e-06
-1.943066e-06
-2.030439e-06
-2.308058e-06
-1.312566e-06
-1.913932e-06
-1.664827e-06
-5.278305e-06
-6.370262e-06
-1.069101e-07
-4.832199e-06
8.184338e-07
-1.953563e-06
-1.929187e-09
-9.637954e-07
-8.519363e-06
-8.069004e-06
-1.167822e-07
-2.288438e-06
-3.098391e-06
-4.132029e-06
1.445008e-07
-5.189373e-07
-2.513289e-06
-1.886322e-06
-1.682307e-06
2.464048e-06
2.863165e-06
-5.221853e-08
-1.32703e-07
-4.599038e-06
-4.263593e-07
-1.178882e-06
-1.540742e-06
-4.844132e-06
-5.873901e-06
-8.288392e-07
-1.074385e-07
-1.516972e-06
-1.206377e-06
1.5717e-07
-4.27224e-06
-1.318519e-07
-5.18755e-07
-8.825215e-06
-9.58211e-07
1.646456e-06
3.563567e-06
-1.471809e-06
-1.560783e-06
-3.022835e-09
1.58792e-07
-1.027317e-06
1.744683e-07
1.1115e-06
3.618313e-07
-7.058283e-09
-1.106834e-06
-1.115254e-06
3.227124e-06
1.506106e-06
-2.421696e-06
-4.189267e-07
1.214706e-06
-5.32232e-06
-1.66114e-06
-2.18663e-06
-2.268754e-06
-6.894531e-07
-1.070877e-06
-1.803429e-06
-2.808469e-06
-2.155743e-06
-2.420794e-06
-3.424839e-06
-2.672749e-06
-2.94415e-06
-5.303553e-06
-1.105695e-06
-2.476672e-06
-2.70539e-06
-3.156924e-06
-3.238025e-06
-3.090003e-06
-2.32799e-06
-2.965306e-06
-2.527363e-06
-2.393132e-06
-1.927627e-06
-6.637953e-08
-1.67161e-06
-2.131815e-06
-4.139475e-06
-4.291571e-06
-1.883107e-06
4.466592e-07
-3.951101e-06
-4.998971e-06
1.862825e-07
-1.001084e-06
-5.391904e-06
-1.174241e-06
-3.628696e-06
-2.60148e-06
-2.299948e-06
-2.340567e-06
-2.439073e-06
-1.305136e-06
-2.671307e-06
-2.602139e-06
-3.61766e-06
-2.412678e-06
-2.464397e-06
-3.925144e-06
-4.609421e-07
-3.272601e-08
-7.028637e-08
1.381543e-06
3.758156e-07
-1.076676e-06
-1.027502e-06
-2.986341e-07
-9.937415e-07
-1.619863e-06
-6.165703e-09
-5.675501e-06
-4.788091e-06
-2.434415e-06
-1.289517e-06
-9.848474e-07
-4.04801e-07
5.240658e-07
5.373729e-07
-1.036661e-06
-1.429481e-06
-1.285433e-06
-4.531336e-06
-3.542442e-06
-1.623883e-06
-2.139821e-06
-1.08161e-06
-3.326682e-06
4.269185e-07
-2.80905e-06
-1.905188e-06
-4.398381e-06
-1.962611e-06
2.11029e-07
-3.007609e-06
-2.378909e-07
-1.734429e-06
-1.641742e-06
-1.541894e-06
-1.382212e-08
-3.167895e-06
-7.628274e-06
-1.724851e-07
2.948753e-07
2.640049e-07
6.216191e-07
-1.773411e-07
-1.519481e-06
-1.01891e-06
-1.515509e-06
-7.113435e-07
-3.871738e-06
-3.309813e-07
-5.531689e-08
-1.910722e-06
-4.094859e-06
-8.834881e-07
-1.987675e-06
-1.694526e-06
3.382563e-06
-7.499989e-06
-6.941231e-06
-1.014557e-06
-1.202491e-06
-2.988241e-06
-9.089692e-07
-5.210015e-06
-1.843409e-06
-2.906101e-06
-1.564953e-06
-1.448361e-06
-1.323755e-06
-1.543859e-06
-1.21859e-06
-1.935758e-06
-3.623251e-06
-1.956182e-06
-2.278181e-06
-6.016813e-07
7.409424e-08
-8.942622e-06
-5.155834e-06
-5.05886e-06
-5.430234e-08
-2.297954e-06
6.249602e-08
1.248526e-06
1.35916e-06
-1.43396e-06
-5.743823e-07
-1.567838e-06
-2.692034e-06
-5.161157e-07
6.983879e-07
-7.605504e-06
-6.610402e-06
-8.22694e-07
-6.245211e-07
-8.11868e-07
-5.199673e-06
-5.10732e-06
-6.83498e-06
-3.370183e-07
-3.829886e-07
-9.332985e-06
1.384916e-06
-4.558585e-06
-2.828728e-06
9.303434e-08
-1.397873e-06
-1.024038e-06
-6.780979e-07
-2.450086e-06
-2.610235e-06
1.72738e-07
-2.157733e-06
-1.488769e-06
6.74934e-07
-1.013434e-05
-6.313067e-06
-2.91287e-06
-1.485497e-06
-1.666258e-06
-6.858347e-07
-1.365822e-06
-2.65057e-06
-1.709149e-06
-2.068164e-06
-1.761886e-06
2.785572e-07
-1.470172e-07
-7.555488e-06
-6.995858e-06
1.078582e-06
-2.569545e-07
-4.348033e-07
-5.064077e-07
-2.847646e-07
-3.367653e-06
-3.54286e-07
-8.673106e-07
-1.247662e-06
-1.519182e-06
3.558682e-06
-1.367056e-06
3.197638e-07
-2.447482e-07
-1.922227e-06
-4.689217e-06
-1.217377e-06
-8.855256e-07
-1.233422e-06
-1.882408e-06
-1.928603e-06
-3.470586e-06
-6.203489e-06
-2.649886e-06
-7.770128e-06
-8.475548e-06
-2.128414e-07
-1.825906e-06
-9.563472e-07
-9.237902e-06
-1.966505e-06
-8.565562e-06
-3.030671e-07
-7.351433e-07
-4.126066e-08
4.77151e-07
-7.139061e-07
-1.277511e-06
-1.166892e-07
-1.718679e-07
-2.083128e-06
-2.307267e-06
-2.294762e-06
-7.381377e-07
1.71482e-07
-8.341093e-06
-4.5969e-07
-9.832198e-08
-3.978213e-06
-4.033124e-06
-4.295999e-06
-2.842167e-06
-6.013564e-07
-1.023118e-06
-4.960204e-07
-3.857709e-06
-5.771831e-06
-1.262713e-06
-6.523343e-06
-5.619435e-06
-5.983875e-06
-6.521498e-06
-1.14458e-06
-6.524446e-06
-2.035777e-07
-3.885558e-06
-3.956755e-06
-4.056627e-06
-8.831147e-06
-4.192014e-06
-2.467939e-06
-2.963886e-06
-3.433448e-06
-6.767395e-06
-4.032467e-07
-2.167171e-06
-1.428081e-06
-4.260059e-07
-8.801534e-06
-1.071941e-05
-9.204867e-06
-2.428391e-06
-7.448874e-06
-9.454733e-06
-1.032241e-05
-1.035669e-06
-1.941434e-06
-1.398394e-06
-3.170721e-06
-2.518325e-06
-4.949835e-06
-3.458197e-06
3.641252e-07
-6.992301e-06
-1.831833e-06
4.980454e-07
8.502435e-07
-1.901612e-06
-1.647618e-07
-4.707713e-06
-1.779838e-07
-1.136514e-06
-1.242968e-06
-5.292246e-07
-2.317107e-06
4.566859e-07
-1.694315e-06
-9.400515e-06
-4.700169e-06
-7.260649e-06
-8.178953e-06
-7.23234e-06
-9.640412e-07
-7.240924e-06
-4.480046e-06
-3.761694e-06
-1.837531e-06
-1.652052e-06
-1.448732e-06
-2.016398e-06
-5.105352e-07
-3.449978e-06
-3.963105e-06
-7.605604e-06
-6.138153e-06
-4.662301e-06
-4.579886e-06
2.489358e-07
-8.544693e-07
-1.376868e-06
1.776665e-06
-3.102992e-06
-3.433563e-06
-3.328018e-06
-9.298109e-07
-5.102114e-07
-4.854029e-06
-2.957336e-06
-2.529876e-07
-4.190461e-06
-1.985203e-06
-1.93114e-06
-2.094944e-06
-3.21563e-06
-5.961664e-06
-9.217199e-07
-1.233329e-06
2.328633e-07
2.13059e-07
-4.498576e-07
-4.537812e-07
-4.881004e-07
-3.037316e-07
-5.376073e-07
-6.585431e-07
-1.49224e-06
-4.040786e-06
-6.789028e-06
-3.885924e-07
-1.447384e-06
-8.856648e-07
-9.576552e-07
-1.438264e-06
8.834117e-07
-4.88009e-07
-9.223139e-07
-1.745977e-06
-1.672087e-06
-1.581579e-06
-2.259977e-06
-4.523193e-07
-4.766543e-07
1.766758e-07
1.717499e-07
2.59953e-07
-6.166416e-06
-1.171549e-06
-3.074364e-07
-1.460152e-07
-7.277008e-07
-2.403038e-06
-2.785937e-06
-8.562437e-07
-6.934987e-07
1.030652e-06
4.135554e-07
-7.057346e-07
1.355965e-06
-5.47549e-06
-7.655713e-06
-3.992323e-07
-2.251189e-06
-1.230961e-06
-1.771722e-06
2.428518e-08
-8.706614e-07
-1.109168e-06
-3.169505e-06
-4.36814e-06
-4.143851e-06
-1.522703e-06
-8.829157e-07
-9.39683e-06
-2.910793e-06
-6.055124e-06
3.772445e-07
-2.532353e-06
-2.815152e-06
-1.892186e-07
-2.343605e-07
-9.157424e-07
-1.018487e-06
-1.44215e-06
-1.102853e-07
-1.507623e-06
-2.358929e-06
-2.05458e-06
-3.04068e-06
-1.266445e-06
-1.187496e-06
-1.352266e-06
-1.03673e-06
2.492742e-06
1.370433e-06
-1.629149e-06
-1.036014e-06
-4.720834e-07
-1.735783e-06
-1.382536e-06
-3.352506e-06
-2.668495e-06
-1.686364e-06
-1.945069e-06
-2.547512e-06
-2.281703e-06
-7.201763e-06
-7.764973e-06
-4.986269e-06
-4.776125e-06
-1.454027e-06
-1.42926e-06
2.2813e-07
-1.019469e-05
-9.320764e-06
-9.543248e-06
-3.842741e-06
6.240012e-07
-6.518718e-07
-7.157525e-07
3.230978e-07
7.031157e-07
-7.638167e-07
1.002467e-06
-2.098989e-06
-1.908499e-06
-1.437821e-06
-1.431017e-06
-1.124798e-06
-1.04266e-06
-8.880811e-07
-6.020959e-07
-1.467803e-06
-1.906687e-06
-2.112778e-06
-6.071495e-07
-5.361504e-07
-1.570277e-06
-1.535042e-06
5.592078e-07
-4.802102e-06
-5.234436e-06
-5.010714e-06
-5.644991e-06
-5.372881e-06
-6.136581e-06
-6.881871e-06
-5.754213e-06
-5.17196e-06
-6.748582e-06
-8.916273e-06
-5.3872e-07
-1.931674e-06
-1.81246e-06
-5.900424e-06
-2.670704e-06
-1.892766e-06
-1.019933e-06
-1.031521e-06
-2.652173e-07
-1.60535e-07
-1.481064e-06
-7.672744e-07