/*--------------------------------*- C++ -*----------------------------------*\
| =========                 |                                                 |
| \\      /  F ield         | OpenFOAM: The Open Source CFD Toolbox           |
|  \\    /   O peration     | Version:  2406                                  |
|   \\  /    A nd           | Website:  www.openfoam.com                      |
|    \\/     M anipulation  |                                                 |
\*---------------------------------------------------------------------------*/
FoamFile
{
    version     2.0;
    format      ascii;
    arch        "LSB;label=32;scalar=64";
    class       volVectorField;
    location    "0.48";
    object      U;
}
// * * * * * * * * * * * * * * * * * * * * * * * * * * * * * * * * * * * * * //

dimensions      [0 1 -1 0 0 0 0];

internalField   nonuniform List<vector> 
4529
(
(0.01047539 -0.001002187 0)
(0.009015575 -0.0004060212 1.111144e-24)
(0.009175136 0.0001723405 -9.894695e-25)
(0.007997413 -0.0005909947 -2.957929e-24)
(0.008580622 0.0003070945 1.403437e-24)
(0.008793969 0.001289591 0)
(0.0094007 0.0005966064 0)
(0.009376335 0.001204553 -1.934132e-25)
(0.008777439 -0.0001101196 -1.043627e-24)
(0.009497471 -0.0005715957 6.102412e-26)
(0.01064242 -0.0001995478 -1.468927e-25)
(0.01002649 -0.0008513753 -5.49288e-25)
(0.009902964 -0.00052126 3.023488e-25)
(0.01001443 -0.0008207088 -5.241964e-25)
(0.00947692 -0.0003306892 0)
(0.009771174 -0.0004613704 2.987219e-25)
(0.008806799 -0.000745461 0)
(0.009724375 -0.0006770594 5.459083e-25)
(0.01015409 -0.0003668093 0)
(0.009534883 -0.0009801992 -6.727484e-26)
(0.01005098 -0.0004123339 -8.790551e-28)
(0.009597128 -0.000509001 8.84397e-25)
(0.009538682 -0.0001112461 -2.55037e-25)
(0.009240933 -0.000361788 0)
(0.01003282 -0.0003702123 1.55744e-26)
(0.009281488 -0.0005705364 -2.637066e-26)
(0.009772898 0.0013095 -4.068072e-25)
(0.00858224 0.0006895428 -8.984133e-25)
(0.009017986 0.001062708 1.247865e-24)
(0.008312228 0.0001550999 -1.289682e-24)
(0.01014966 -0.0006337085 1.921628e-25)
(0.009523031 0.0001183377 3.494265e-25)
(0.009774293 -0.0003770343 0)
(0.0102593 -0.0005661135 0)
(0.01099761 -0.0005718117 0)
(0.009086758 0.0006481426 1.654991e-24)
(0.009261263 -0.0003414998 -3.408213e-25)
(0.009981007 -0.0009833579 0)
(0.0086707 -0.0009213762 -2.371055e-24)
(0.01074824 -0.0008902233 8.198233e-25)
(0.00950385 -0.0002088718 -2.170141e-26)
(0.009783879 -0.0003413838 -3.294252e-25)
(0.009439544 -0.0001859443 -5.67765e-25)
(0.01014204 -0.0004993692 0)
(0.01012896 -0.0004589971 4.169903e-27)
(0.01075409 -0.0007413032 9.799631e-26)
(0.009418894 8.116298e-05 0)
(0.009059192 -0.000350622 0)
(0.01014488 -0.000323073 -5.881512e-27)
(0.008821187 0.0001262543 -1.242207e-24)
(0.00721237 -0.0002726634 5.597366e-24)
(0.009398425 -0.0004556005 -3.048862e-25)
(0.007154626 0.0003754877 0)
(0.01050458 -0.0007467954 2.921963e-26)
(0.009299553 -0.001097406 2.234923e-25)
(0.008790612 -0.000301754 -8.871793e-25)
(0.008849559 -0.0001055871 0)
(0.01074758 -0.0001136766 1.694552e-24)
(0.008018854 0.0009856756 6.101515e-24)
(0.007767285 -0.0009385554 -4.357338e-24)
(0.009258067 0.001008698 1.054362e-24)
(0.01062268 -0.0006803671 0)
(0.009888945 -0.0003726203 -3.028291e-25)
(0.007757812 -0.001022877 0)
(0.00927537 0.0003690996 0)
(0.01042397 -0.0007275391 2.804515e-27)
(0.01015361 -0.001065707 8.831993e-25)
(0.009573942 -0.0002898592 3.04282e-25)
(0.009228808 8.53291e-05 0)
(0.01112537 -0.0004058014 0)
(0.009278724 -1.662392e-05 1.94154e-24)
(0.008939953 -0.0002953645 1.148001e-24)
(0.008287795 -0.0001253604 -1.026809e-24)
(0.009798195 -0.0003679253 -4.173003e-25)
(0.007209492 0.0003306054 -1.664929e-24)
(0.008444014 -0.0009559043 -3.272568e-24)
(0.01085378 -0.0008340486 6.698439e-25)
(0.01050322 -0.0002642856 0)
(0.008374867 -0.001250609 3.988618e-24)
(0.008901211 0.000229367 2.72232e-25)
(0.008453878 -9.747361e-05 2.059642e-24)
(0.009389523 0.0002272689 6.688905e-25)
(0.01025484 -0.0004254226 -3.529305e-26)
(0.009524973 -0.000568375 -1.708142e-25)
(0.009075087 -0.0007442935 -7.339022e-25)
(0.009787969 -0.0005222431 8.936665e-25)
(0.01013354 -0.0003693579 0)
(0.01049341 -0.0005603732 0)
(0.0107448 -0.0006850538 0)
(0.01042611 -0.001094629 1.327652e-24)
(0.007344632 -0.0005761032 2.057062e-24)
(0.009701217 -0.0002895949 0)
(0.01022197 -0.0003766801 -3.62396e-26)
(0.009426815 0.0004042247 -2.194848e-25)
(0.009630254 -0.0002638817 0)
(0.01011298 -0.0008720607 -6.079395e-25)
(0.007890478 -0.0002991639 -3.057881e-24)
(0.009474577 -0.001183267 -2.340403e-25)
(0.009364906 0.001310758 7.177315e-24)
(0.009193119 -0.0007519295 -1.048844e-24)
(0.009802934 -0.0004598947 0)
(0.008532507 -0.0006418174 -1.444894e-25)
(0.009081074 0.0003858263 9.911715e-25)
(0.009510009 -0.00117022 -2.287272e-25)
(0.009556155 -0.0004041793 -4.805796e-25)
(0.0107712 -0.0007628405 5.742444e-26)
(0.009661853 -0.001358748 4.388799e-24)
(0.01083512 -0.0007149623 -4.209943e-27)
(0.01047494 -0.0005340167 -6.368897e-25)
(0.01030961 -0.0008554287 5.695313e-26)
(0.009968195 -0.0003494378 3.947631e-26)
(0.009491794 0.0002858588 2.908813e-25)
(0.00824209 0.000702749 0)
(0.008695889 0.0008822793 5.958405e-24)
(0.008227288 -0.0002243731 0)
(0.009592866 -0.0003360973 -4.981882e-25)
(0.009978752 -0.001156411 -1.754346e-24)
(0.009248217 0.001031007 1.556442e-24)
(0.00940677 -0.0005349202 -4.745838e-25)
(0.009992448 -0.0005850312 0)
(0.009697107 -0.001246596 0)
(0.009262545 0.0003161476 -1.072595e-25)
(0.01053679 -0.0009723605 0)
(0.01007205 -0.001054716 -1.140447e-24)
(0.009570688 -0.0003529471 2.550653e-25)
(0.008750617 -0.0007495757 0)
(0.009368441 0.001021749 0)
(0.0104224 -0.0005960228 -4.641271e-26)
(0.009451917 -0.0003540229 0)
(0.008613903 -0.001060561 -2.432674e-24)
(0.009321245 0.0004421178 5.318589e-26)
(0.009314266 0.001281914 4.33949e-24)
(0.007296787 -0.0006204429 -5.097264e-24)
(0.01047392 -0.0008929095 2.284799e-25)
(0.01075268 -0.0008681409 0)
(0.01030839 -0.0005813495 -1.21013e-25)
(0.01035538 -0.0005606204 0)
(0.01007962 -0.0005031176 -5.688727e-26)
(0.01007682 -0.0009332577 0)
(0.009321479 -0.0008261275 0)
(0.009738855 -0.001164992 1.717029e-24)
(0.009812788 -0.001003957 -2.759337e-24)
(0.00984047 -0.0006232575 -4.214635e-25)
(0.008941764 -0.0008913348 -2.279114e-24)
(0.007857958 3.230565e-05 3.096738e-25)
(0.009363761 0.001170919 1.712882e-24)
(0.01055771 -0.0009480756 -1.013562e-24)
(0.008211915 0.0001641001 1.298269e-24)
(0.009411046 0.000912356 0)
(0.009345203 -0.0005261894 4.43029e-25)
(0.009096679 -7.86052e-05 4.575954e-25)
(0.00872947 0.0007993548 -5.632737e-25)
(0.009180992 -0.001011643 1.58667e-24)
(0.009792356 -0.0004161403 3.411793e-25)
(0.009246246 0.00133387 5.096862e-24)
(0.00994693 -0.0006221819 -3.881808e-25)
(0.01027828 -0.0006899858 0)
(0.009365909 -0.00120302 0)
(0.009805676 -0.0006926985 -6.685566e-25)
(0.009174135 0.0001981595 1.041001e-24)
(0.01111877 -0.0005966774 0)
(0.009993601 -0.0004521749 2.538262e-25)
(0.008866365 -0.001191009 -1.464306e-25)
(0.009960892 -0.001248295 1.306809e-24)
(0.0100635 -0.000396095 6.957164e-26)
(0.01013266 -0.0003793183 0)
(0.01010556 -0.0004919126 2.989296e-26)
(0.00941634 -0.0009047027 0)
(0.0101567 -0.001235963 0)
(0.009330234 0.0006408419 -1.410756e-24)
(0.008245786 0.001043465 0)
(0.009421254 0.0002055137 0)
(0.007414888 -0.0008674907 3.219365e-24)
(0.01028486 -0.000478038 1.906398e-26)
(0.0109105 -0.0008291337 0)
(0.009043907 0.0009432621 -8.444466e-25)
(0.009999745 -0.001055733 -1.872029e-24)
(0.008146084 -0.001213278 -4.041646e-24)
(0.007225047 -0.0007131224 -2.665968e-25)
(0.01115916 -0.0006176708 0)
(0.0103012 -0.0005025493 -1.531826e-25)
(0.009179608 -0.0006097225 0)
(0.00925945 5.290159e-05 1.670025e-24)
(0.00937144 1.240175e-05 9.772103e-25)
(0.01122305 -0.0003996285 -4.746562e-25)
(0.007504853 -0.001072406 -3.671277e-24)
(0.009472199 -0.001098753 -1.261595e-24)
(0.009988556 -0.0005696802 -4.485908e-25)
(0.008231568 -4.336135e-05 6.077996e-25)
(0.01000622 -0.0006171099 0)
(0.009152238 0.00104836 4.413974e-25)
(0.007443145 -0.0003840524 0)
(0.01042362 -0.000522253 0)
(0.009268424 0.00123685 -8.315366e-26)
(0.009306626 -0.000636863 0)
(0.01079174 -0.0006885357 -2.240058e-26)
(0.01020641 -0.0004815002 0)
(0.007769411 -0.0002887568 0)
(0.01119134 -0.0004565911 1.096218e-24)
(0.01007476 -0.0004149137 -6.371803e-27)
(0.009433041 0.0003640234 7.21245e-25)
(0.01070471 -0.0005197665 4.162669e-25)
(0.009466638 4.645356e-05 -2.060364e-25)
(0.007463047 0.0002655207 0)
(0.009626849 -0.0003423527 0)
(0.009087681 -0.0004405391 -1.056286e-24)
(0.008632527 -0.001098887 0)
(0.009060083 -0.0004091139 0)
(0.008850068 0.0006013925 0)
(0.00765585 -0.0009166903 3.967049e-24)
(0.01031475 -0.0006070115 1.053793e-28)
(0.008721015 0.000400413 3.199371e-25)
(0.01025175 -0.0007675517 0)
(0.009127074 -0.001078914 2.482438e-24)
(0.009351748 -0.0008348083 1.544097e-24)
(0.009230684 0.0008442819 0)
(0.009582212 -0.0008069023 0)
(0.009707526 -0.0005426485 -1.058592e-24)
(0.009066811 0.0003211363 0)
(0.01095702 -1.051904e-05 -2.43471e-24)
(0.009231543 -0.0008475136 -1.139874e-24)
(0.009930851 -0.0004260554 6.454543e-26)
(0.009530825 -0.0008626771 -8.051226e-25)
(0.01006624 -0.0006416584 -1.809139e-27)
(0.01012398 -0.0009039443 -1.605434e-24)
(0.01085973 -0.0005709916 -3.646219e-26)
(0.009602651 -0.0002957707 -8.707028e-25)
(0.008899971 -0.0001520383 -4.793701e-25)
(0.008814012 -0.001292383 3.323404e-24)
(0.009816123 -0.0003464735 8.404771e-25)
(0.009381821 0.001341614 0)
(0.007550309 0.000663824 5.513211e-24)
(0.008874695 -0.001419365 0)
(0.01017192 -0.0007392604 -2.512113e-25)
(0.008812072 -0.000538077 -7.733478e-25)
(0.009203837 0.0009809419 1.453793e-24)
(0.01015533 -0.001164898 1.883403e-25)
(0.009013471 -0.001157038 -2.22493e-24)
(0.01020908 -0.0004688967 1.225522e-26)
(0.009063571 0.0002090174 5.195776e-25)
(0.008811168 0.0003816563 0)
(0.01018088 -0.0004496256 0)
(0.00983184 -0.0005096509 5.51953e-25)
(0.007735237 -0.0004975169 2.965272e-24)
(0.01061625 -0.0003150132 6.747926e-26)
(0.009133076 -0.001107164 -3.049168e-25)
(0.008441141 -0.001311716 3.511126e-24)
(0.009620683 -0.0005687921 0)
(0.009867249 -0.0009310797 -5.196415e-25)
(0.01028421 -0.000423928 0)
(0.009892147 -0.001285266 -2.938034e-25)
(0.01041476 -0.0003958271 0)
(0.008370255 -0.000360749 -1.9986e-24)
(0.01078671 -2.489187e-05 0)
(0.01113326 -0.0006486529 -1.718968e-25)
(0.01025878 -0.0009296722 5.230771e-25)
(0.008402888 -2.549654e-05 0)
(0.00773605 0.0007636443 -1.485198e-24)
(0.008276093 -0.0006189283 0)
(0.009555867 -0.0005836631 4.943855e-25)
(0.01043811 -0.0002255015 0)
(0.009745741 -0.0003032078 -3.238719e-25)
(0.009488096 -0.0002965309 -4.756775e-25)
(0.009971544 -0.0007218647 4.236526e-25)
(0.009240439 0.0002208186 0)
(0.008291692 0.0009401337 3.202175e-24)
(0.009247852 -0.0003148163 3.680593e-25)
(0.01034655 -0.001187127 -6.214922e-26)
(0.008959988 -0.0004367128 9.110731e-25)
(0.009727455 -0.0004892719 2.613765e-25)
(0.009353463 -0.000727367 0)
(0.009991836 -0.0005070832 -2.880161e-25)
(0.01061195 -0.0009488527 0)
(0.01023906 -0.001232367 -2.800515e-24)
(0.007833828 0.0009270552 1.004006e-24)
(0.0100294 -0.0004160045 -1.34603e-25)
(0.01008163 -0.0004771013 0)
(0.01016925 -0.0005139258 2.568627e-26)
(0.008447746 -0.0008365861 5.142379e-25)
(0.008898392 -0.001409111 0)
(0.009977707 -0.0008752111 4.187306e-25)
(0.009455244 0.0003176315 5.147085e-25)
(0.01027377 -0.0006332193 -4.578598e-26)
(0.009502416 -0.001240677 0)
(0.01010849 -0.000411676 -1.864743e-26)
(0.00920392 0.0001625468 -6.418894e-25)
(0.009331475 0.0008090327 0)
(0.01011359 -0.0005073087 -1.645694e-25)
(0.008936535 -0.0006364201 0)
(0.009648812 -0.0008564919 -5.377951e-25)
(0.00976412 -0.001344496 0)
(0.01059424 -0.0009258841 1.058483e-24)
(0.01021019 -0.0009288445 7.459804e-25)
(0.009208665 -0.0001303852 5.444609e-25)
(0.008952212 0.0001812867 2.891516e-26)
(0.01040926 -0.0008737752 4.532152e-25)
(0.00939765 9.2091e-05 0)
(0.009403893 -0.001050371 0)
(0.009793797 -0.0005083603 -7.588329e-26)
(0.009764973 -0.00100268 -1.806123e-24)
(0.009342312 -4.995147e-05 -2.79316e-25)
(0.009222146 -0.0002351797 0)
(0.008888188 0.0005339333 8.962069e-25)
(0.01098788 -0.0003593382 0)
(0.01016474 -0.001043316 -8.553191e-25)
(0.009113202 0.0009139943 3.303444e-24)
(0.009761396 -0.001313218 0)
(0.009524584 -0.0004389087 6.376937e-25)
(0.008849599 -0.0006795882 0)
(0.009859452 -0.000693235 4.67655e-26)
(0.009758364 -0.000614075 0)
(0.009372293 0.0005783528 0)
(0.0103834 -0.0004290115 -1.500062e-25)
(0.009282358 -0.0005264201 0)
(0.01008666 -0.001238361 0)
(0.01024606 -0.001047695 0)
(0.009362576 0.0003728182 8.016121e-25)
(0.009471852 0.0003514577 0)
(0.008132528 0.001185278 -1.6919e-24)
(0.01073244 -0.0005834619 2.891647e-25)
(0.01037248 -0.0008294129 0)
(0.01086408 -0.0005201557 -7.945605e-25)
(0.009028695 0.0003185269 0)
(0.00854948 -0.0005284139 1.116071e-24)
(0.0100336 -0.0009090929 -1.372453e-24)
(0.008812741 -0.000185545 -2.496866e-24)
(0.009844389 0.001249575 1.841329e-24)
(0.009998641 -0.0003552772 3.263824e-25)
(0.009879495 -0.0004782869 3.20099e-25)
(0.01004 -0.0003906446 2.033491e-25)
(0.01004161 -0.0004473647 4.25224e-26)
(0.009944213 -0.0004130832 0)
(0.009873082 -0.0003571194 0)
(0.009314326 -2.388442e-05 -3.063093e-26)
(0.01065468 -0.0007253593 0)
(0.008184382 0.0004020839 0)
(0.008459768 0.0006297134 -8.612693e-26)
(0.009097232 0.0007830354 0)
(0.009911396 -0.000335975 2.474637e-25)
(0.009666402 -0.0004169865 4.217952e-25)
(0.009560086 -0.0002783418 0)
(0.009514484 -0.001136428 -2.493691e-24)
(0.0111367 -0.0004768771 -1.45131e-24)
(0.008801786 0.001103323 -8.724296e-26)
(0.009332144 -0.001285337 0)
(0.01070424 -0.0005838342 3.349003e-27)
(0.009133774 0.0003229431 0)
(0.008584471 0.001148015 6.417879e-26)
(0.00843183 0.000673419 -1.948093e-24)
(0.009480732 4.379567e-05 1.694911e-25)
(0.009631159 -0.0005380331 -1.545629e-25)
(0.01072477 -0.0004814385 3.73436e-25)
(0.009443883 0.000243133 3.922754e-25)
(0.009401812 0.0002803349 -7.4104e-25)
(0.01077578 -0.0007815483 4.092257e-26)
(0.008716283 -0.0004900749 1.549171e-24)
(0.008842376 0.001162219 -4.131046e-25)
(0.01085101 -0.0001028681 1.232577e-24)
(0.009312537 -0.0004802821 0)
(0.009381327 -0.00022803 -1.267905e-24)
(0.009843482 -0.0003764619 -4.08977e-25)
(0.01095911 -0.0008462342 8.324102e-25)
(0.009001559 -0.0001282288 0)
(0.009880159 -0.0005630578 3.600814e-25)
(0.01005266 -0.000761936 -1.925568e-25)
(0.01026797 -0.0005925396 0)
(0.01027287 -0.0007270274 -2.945262e-25)
(0.008692371 -1.233048e-05 1.081597e-24)
(0.009411628 0.0006486387 7.150668e-25)
(0.01054893 -0.001099689 2.920192e-24)
(0.0103012 -0.0006577417 0)
(0.009901999 -0.0006327735 -4.132655e-25)
(0.009656364 -0.0009554673 0)
(0.01046849 -0.0004949249 1.221425e-25)
(0.009517938 -0.0007505994 3.994735e-25)
(0.009926971 -0.0002963474 -1.192157e-25)
(0.01033259 -0.0002216438 0)
(0.007734343 -0.0003852392 3.542085e-24)
(0.007202429 -0.0001612336 -1.675392e-24)
(0.009682199 -0.001023646 -5.543258e-25)
(0.009756971 -0.0006985259 5.19104e-25)
(0.01054071 -0.0007003081 -1.769149e-25)
(0.01027249 -0.0003982177 -1.697946e-25)
(0.01016884 -0.0005382428 1.413561e-25)
(0.01101587 -0.0007900541 4.370589e-25)
(0.0101317 -0.0005095858 8.080454e-26)
(0.009492222 -0.001374067 -1.851966e-24)
(0.01113732 -0.0004266477 0)
(0.008682453 0.0001138641 -1.291159e-24)
(0.01008379 -0.0003498894 0)
(0.00769755 0.0004965423 1.111789e-25)
(0.01092354 -0.0006568884 2.880052e-26)
(0.01105604 -0.0002532479 2.103112e-24)
(0.00912937 0.0005436194 0)
(0.0106971 -0.001003217 0)
(0.009119704 0.000604365 1.244816e-24)
(0.009254791 0.0006557077 5.883725e-25)
(0.009301795 0.0009042605 -9.609349e-25)
(0.009222049 0.0005939364 0)
(0.008808898 0.0005622016 0)
(0.009512014 0.0007314695 0)
(0.01082427 -0.0005804808 -7.189416e-26)
(0.007679472 0.0002699804 0)
(0.007846326 0.0004445599 0)
(0.007726097 0.0002300186 -2.77093e-24)
(0.009831044 -0.000665048 -2.608402e-25)
(0.007934736 0.0005765345 -2.137589e-24)
(0.009822067 -0.0004195444 -1.867451e-26)
(0.01096478 -0.0006392871 0)
(0.009211912 -0.0003065891 -7.289277e-25)
(0.008737078 -3.791679e-05 1.085753e-24)
(0.009591092 -0.0004879773 -5.64926e-25)
(0.008353811 0.000666507 1.920874e-24)
(0.009326752 8.994549e-06 -7.450478e-25)
(0.01032763 -0.00053861 -1.08396e-26)
(0.00981882 -0.0004395776 0)
(0.009792424 -0.0006075537 5.321029e-25)
(0.008916088 -0.000537784 -1.169326e-24)
(0.01009586 -0.0006192573 4.179961e-25)
(0.0105403 -0.0005869804 4.772977e-27)
(0.008094522 -0.00106521 -2.477439e-24)
(0.01015629 -0.001218654 0)
(0.007776076 -0.0007156433 3.770964e-24)
(0.008872595 0.0009929997 0)
(0.008054462 -0.001240688 -5.029205e-24)
(0.007330637 -0.0002345202 -1.114398e-24)
(0.009257676 0.001307426 0)
(0.009680641 -0.00111924 1.53104e-24)
(0.01093167 -0.0008859191 -3.442401e-25)
(0.009148287 -0.0007340191 -3.955639e-25)
(0.009882248 -0.0004025575 1.998214e-25)
(0.01094241 -0.0007584081 8.033266e-26)
(0.007898901 -0.001162048 -3.946108e-24)
(0.007463777 0.0003938483 3.834245e-24)
(0.01061839 -0.0006091053 -2.758462e-25)
(0.009583532 -0.0003813751 -7.02298e-25)
(0.01035308 -0.0005165802 -1.628052e-25)
(0.01021437 -0.0005024332 2.361274e-27)
(0.008706994 -0.0004144064 0)
(0.01042569 -0.0006080712 7.234231e-27)
(0.01042403 -0.001134659 -1.8865e-25)
(0.0101053 -0.0006477919 2.655341e-25)
(0.00962784 -0.001339971 0)
(0.009296523 -0.0003478228 0)
(0.009472866 0.0005356043 -5.478193e-26)
(0.009514823 0.0005231988 0)
(0.01063902 -0.0006230216 4.277747e-25)
(0.009416434 0.0004888056 -2.242723e-25)
(0.009411823 0.0003696514 -4.534245e-25)
(0.009001823 0.0005502743 0)
(0.00886993 -0.001137597 -1.674141e-24)
(0.009615512 -0.0009425995 1.798535e-24)
(0.009207601 -0.000885972 6.734906e-25)
(0.009827833 -0.0007777364 3.540158e-25)
(0.009966897 -0.0008446989 -9.66589e-25)
(0.009850124 -0.001325357 -2.171961e-24)
(0.009600186 -0.000258054 0)
(0.009294216 -0.001197385 3.052178e-24)
(0.01083622 -0.0008849489 -5.807906e-25)
(0.009846034 -0.0005937772 1.000952e-24)
(0.01065231 -0.0007947897 -1.305697e-25)
(0.0104078 -0.001046582 1.009389e-25)
(0.009315077 5.412517e-05 0)
(0.01120044 -0.0004639157 0)
(0.009414019 0.001142311 2.796825e-25)
(0.008654679 0.0005079328 -4.77568e-25)
(0.009691231 -0.0003120583 0)
(0.009917874 -0.000796573 2.350816e-25)
(0.01033093 -0.00080486 4.199156e-25)
(0.009915136 -0.0003547878 8.945926e-26)
(0.01027406 -0.0005780451 0)
(0.01113043 -0.0005684181 7.153002e-25)
(0.009041648 0.0006800782 0)
(0.009301249 -0.0001694182 0)
(0.00809163 -0.0001445543 0)
(0.01007376 -0.0003430585 0)
(0.008590948 0.0005406264 6.586402e-26)
(0.009421249 -9.499006e-05 -4.427454e-25)
(0.01029623 -0.0005719644 -1.694133e-26)
(0.0096098 -0.0003474957 -6.33707e-26)
(0.01117079 -0.0005900482 -1.6887e-25)
(0.01089958 -0.0009058009 2.850598e-25)
(0.01088354 -0.000901294 0)
(0.009946158 -0.0003690582 2.343178e-25)
(0.009414134 -0.0003392482 0)
(0.01093151 -0.0007120162 0)
(0.008877 0.0004626824 0)
(0.01038012 -0.0004912823 -3.306588e-26)
(0.009442189 -0.0007972164 7.341064e-25)
(0.009276054 0.001149567 0)
(0.007395635 -0.00115177 6.82701e-25)
(0.009080925 -2.223427e-05 -5.727596e-25)
(0.00896483 0.0001167194 0)
(0.00991155 -0.0003082476 2.313922e-25)
(0.009453241 0.0005943993 5.303675e-25)
(0.008782139 0.0003388478 1.10981e-24)
(0.008701719 3.43296e-05 3.414092e-24)
(0.00851037 0.0001507253 2.305333e-24)
(0.009295869 0.0005105943 -7.025119e-25)
(0.008432931 0.0005328553 -1.393777e-24)
(0.008895628 0.0002953001 0)
(0.009834367 -0.0003323037 -2.473129e-25)
(0.009363188 -0.0008550785 -1.154305e-24)
(0.01068852 -0.001040715 0)
(0.01070995 -0.0009764069 0)
(0.009751218 -0.0004153151 1.966978e-25)
(0.00999055 -0.000370069 0)
(0.009956116 -0.0003644077 -2.100323e-25)
(0.009838066 -0.0003558537 -1.791476e-26)
(0.009862727 -0.0005233124 -4.204623e-25)
(0.009934864 -0.0003839828 -2.089668e-25)
(0.01001378 -0.0004460713 -1.913232e-25)
(0.008843756 -0.0001730398 -1.425296e-24)
(0.01049621 -0.0003305375 -4.60017e-25)
(0.009356382 -0.0003473459 -6.740964e-25)
(0.009073524 -0.0009692007 -6.408267e-25)
(0.009673015 -0.0003854942 4.715774e-25)
(0.01064519 -0.0009561781 0)
(0.01099838 -0.0007170761 0)
(0.01092781 -0.0007928618 7.044998e-25)
(0.009474938 9.024806e-05 0)
(0.01026478 -0.0005507545 0)
(0.009482137 0.000797159 0)
(0.009456515 7.897408e-05 0)
(0.009487343 2.271759e-05 0)
(0.009996106 -0.0003932865 2.334007e-26)
(0.01009878 -0.0008905359 7.613587e-25)
(0.008941571 -0.0002008914 0)
(0.0105501 -0.0006525904 0)
(0.0101541 -0.000344974 -8.042381e-27)
(0.009692387 -0.0007488034 -9.671168e-25)
(0.01000719 -0.0007285758 6.206563e-25)
(0.00992172 -0.0006610389 -1.100978e-25)
(0.009855226 -0.0007155288 -5.884233e-25)
(0.009961096 -0.0005191199 -2.59873e-25)
(0.008536547 0.000642076 6.959052e-25)
(0.01024454 -0.0003849134 0)
(0.01017956 -0.0004377262 1.509035e-26)
(0.01019745 -0.0004643604 7.923375e-26)
(0.01102879 -0.0005396317 0)
(0.008422777 -0.001354077 -1.699159e-25)
(0.009909325 -0.0004675237 5.962362e-26)
(0.01125113 -0.0004305198 -4.151221e-25)
(0.009948163 -0.0005303541 -2.597754e-25)
(0.009182787 0.0009056001 8.276097e-25)
(0.01009699 -0.0004261926 -8.169782e-26)
(0.009414004 -0.0006142436 -4.04802e-25)
(0.008831573 0.0006370189 0)
(0.00976616 -0.0008503523 -4.008114e-25)
(0.01104754 -0.0005446922 0)
(0.008944793 0.0002424347 3.836187e-26)
(0.009375563 0.0004133062 0)
(0.009269148 -0.0006034202 0)
(0.008999776 -0.0002494181 7.945505e-25)
(0.01022285 -0.0008903776 3.878104e-25)
(0.0101063 -0.001011024 0)
(0.008462785 0.00118414 3.363658e-24)
(0.009190256 0.001201378 -2.441823e-24)
(0.01091719 -0.0006135672 -4.218069e-25)
(0.009694322 -0.001148463 0)
(0.01061996 -0.0007023772 -1.476949e-26)
(0.00954201 -0.0003253466 -9.398924e-25)
(0.00929095 -0.0009824262 4.417035e-25)
(0.008426163 -0.001183593 1.07253e-25)
(0.008217494 0.0002161067 3.995414e-24)
(0.009534823 -0.0001558901 6.223825e-25)
(0.009459445 -2.332597e-05 -3.337367e-25)
(0.008904948 0.001154246 0)
(0.008665582 0.0001888792 -2.211114e-24)
(0.009173877 0.001372324 -4.240918e-24)
(0.01037005 -0.0008466607 0)
(0.01047179 -0.0003903124 -6.800931e-25)
(0.01044909 -0.0006176686 5.64189e-27)
(0.009816916 -0.00111559 1.381765e-25)
(0.009117694 -0.0005577908 -2.60696e-26)
(0.008965626 0.0002792903 -1.269657e-24)
(0.009026481 0.0004142211 -1.247412e-25)
(0.009552688 0.001322555 5.195837e-24)
(0.01011678 -0.0004823537 5.833297e-26)
(0.01008682 -0.0003297946 0)
(0.009446592 0.0009508363 0)
(0.00947676 -0.001221361 0)
(0.009528897 -0.0009023144 0)
(0.01005963 -0.0007934469 3.968369e-25)
(0.009505432 -0.0002760085 -6.980128e-25)
(0.009041286 0.0007757349 -3.456661e-25)
(0.01016302 -0.0008002278 0)
(0.01032793 -0.001183042 -1.538629e-24)
(0.009040843 0.0001576512 -1.133643e-24)
(0.01103937 -0.0007088812 -5.972733e-25)
(0.01108269 -0.0005906178 0)
(0.0101259 -0.001195975 -1.287501e-24)
(0.01030609 -0.001004982 -7.241947e-25)
(0.01091611 -0.0001739433 1.596766e-24)
(0.009004511 -0.0008641301 1.76671e-24)
(0.009304618 -9.613795e-05 -4.363542e-25)
(0.009096953 -0.000804612 -1.694156e-24)
(0.009002726 3.222279e-05 1.091519e-24)
(0.01099086 -0.0005952968 -5.165477e-25)
(0.01082223 -0.0005312134 0)
(0.009943368 -0.0003005257 0)
(0.00905623 -1.340536e-06 -5.387827e-25)
(0.01068756 -0.0007791787 0)
(0.01064448 -0.0008779806 -4.142694e-25)
(0.01058774 -0.000789514 -4.074396e-25)
(0.01056357 -0.0007633437 -3.393814e-26)
(0.01040652 -0.0004906793 0)
(0.009940036 -0.0008809315 -8.08513e-25)
(0.01069741 -0.000746211 0)
(0.009496935 0.0008591751 -1.258515e-25)
(0.008049127 -0.0008602183 1.994628e-24)
(0.009815735 -0.0008931943 1.337082e-24)
(0.009883473 -0.000908054 0)
(0.009825289 -0.0005952079 -5.925854e-25)
(0.01042549 -0.0009341536 -7.44163e-25)
(0.01084762 -0.0003064246 -1.006938e-24)
(0.01022767 -0.0002506519 5.344865e-26)
(0.01023924 -0.0005709867 0)
(0.007698254 -0.0001292688 3.899369e-24)
(0.01012954 -0.0007736406 -3.436519e-25)
(0.01020898 -0.0008403628 0)
(0.008599885 -0.000841902 0)
(0.008391844 -0.0007394666 1.588036e-24)
(0.01078366 -0.0008405831 -1.711198e-25)
(0.009704354 -0.001291587 5.570937e-25)
(0.009894804 -0.0003188371 -1.938522e-25)
(0.01059941 -0.0005513337 0)
(0.00946948 -0.0002095919 1.306046e-24)
(0.01028095 -0.0012205 0)
(0.009399392 -0.000428548 5.080484e-25)
(0.008831495 0.0008520948 0)
(0.008369958 -0.0009524274 6.367881e-24)
(0.008922923 -0.001306343 -2.572571e-25)
(0.009475457 0.0002523665 -1.444202e-25)
(0.009702958 -0.0004208143 3.856783e-26)
(0.01055973 -0.0006185976 1.307167e-25)
(0.01026518 -0.0003078339 4.824166e-25)
(0.00964651 -0.0005045714 -8.469283e-25)
(0.009271059 0.0006392655 -9.004619e-25)
(0.009813932 -0.0006321917 0)
(0.009714818 -0.0005119097 1.322758e-25)
(0.009967319 -0.0003210699 0)
(0.01108002 -0.0005608852 -2.905483e-26)
(0.01117318 -0.0003447913 1.877033e-24)
(0.009661802 -0.001003637 0)
(0.009996253 -0.000433101 2.875956e-25)
(0.009114275 0.0007560283 8.003206e-26)
(0.008447978 -4.14515e-05 -1.707327e-24)
(0.0102284 -0.0006938626 0)
(0.01012836 -0.001037947 -7.087262e-25)
(0.01021541 -0.0003551765 2.634525e-26)
(0.008483654 -0.0006480757 1.074488e-24)
(0.01024591 -0.001185769 -2.440575e-24)
(0.009190791 0.001347073 -2.332797e-24)
(0.009575049 -0.0005224187 0)
(0.009583578 -0.0009024347 0)
(0.01019591 -0.0005040617 0)
(0.008216132 0.0007522645 0)
(0.009736236 -0.0003262603 -2.601663e-25)
(0.006919083 -0.0001867426 -1.232183e-24)
(0.009653918 -0.0004713506 -6.420257e-25)
(0.009325723 0.0008678616 -5.863157e-25)
(0.008030525 -0.0003529045 -5.465487e-24)
(0.009520438 -0.0003021603 0)
(0.010292 -0.001199982 1.150993e-24)
(0.008604627 -0.000171599 1.334486e-24)
(0.009069368 -0.0006266493 1.148768e-24)
(0.009306428 7.784127e-05 1.875289e-25)
(0.007407022 0.0007049004 -1.077088e-25)
(0.009166586 -2.280511e-05 -3.64925e-25)
(0.009129253 -6.81826e-05 -3.865114e-25)
(0.0111899 -0.0005163033 6.296943e-26)
(0.009499572 0.0005806727 -4.481204e-25)
(0.01004098 -0.0003390098 0)
(0.009826879 -0.001242042 0)
(0.009432425 0.0007478819 -8.165895e-25)
(0.00943905 3.135492e-05 -7.267024e-25)
(0.01079417 -0.0006520371 -2.700835e-26)
(0.009010692 0.0008753195 -1.753021e-25)
(0.009379339 -3.601246e-05 -4.853686e-25)
(0.009670685 -0.0005127381 -4.869362e-25)
(0.009425379 0.0001554154 0)
(0.009215138 -0.0001008789 -5.345442e-25)
(0.00911588 -0.0001339744 3.840126e-25)
(0.01094369 -0.0006862999 0)
(0.01089012 -0.0007584388 2.072936e-26)
(0.01065418 -0.0006062301 -1.189545e-25)
(0.009886238 -0.001020959 -6.416776e-25)
(0.009831804 -0.0009735832 1.062811e-24)
(0.009410358 0.001325722 -3.242709e-24)
(0.008786479 0.0002673083 2.23153e-24)
(0.009493397 0.0009037374 0)
(0.008839149 0.0009177491 -2.047793e-25)
(0.008893977 0.0008649418 -1.719275e-24)
(0.009750576 -0.0005082369 -7.108378e-26)
(0.01096075 -0.0007208054 0)
(0.009839291 -0.0005233403 -2.754969e-25)
(0.008368665 0.0009081733 -3.26806e-24)
(0.008141668 -0.0008294739 3.608253e-24)
(0.009706741 -0.0003161069 -3.024499e-25)
(0.009730109 -0.0003836429 -1.245316e-26)
(0.009713591 -0.0005616099 6.016509e-25)
(0.007185756 -0.0005835985 0)
(0.009532427 -7.125105e-05 0)
(0.01024322 -0.0005117087 0)
(0.01103828 -0.0004797501 -3.071753e-25)
(0.009284175 0.0008129993 5.59994e-25)
(0.009264033 -0.0005029714 8.157987e-25)
(0.009281958 7.857118e-05 -1.773111e-25)
(0.008569791 0.001356659 0)
(0.008959414 0.00137501 1.555418e-25)
(0.009428053 0.001114255 -2.399131e-25)
(0.009505552 0.001202307 -4.191987e-24)
(0.00963642 -0.0006306734 1.13938e-25)
(0.009418917 0.000685967 0)
(0.009410453 -0.00131288 3.064952e-24)
(0.009575745 -0.0007198468 5.968489e-25)
(0.009407803 -0.0007821425 1.327081e-24)
(0.009218833 -0.0007159603 8.779865e-26)
(0.009396126 -0.0006543999 1.350347e-24)
(0.008056363 0.0001044657 -2.449288e-24)
(0.009569039 -0.000827376 7.016735e-25)
(0.009199539 -0.0007833758 0)
(0.009925855 -0.0007422735 -1.193652e-24)
(0.009885951 -0.0004558708 0)
(0.008640492 0.0005467773 0)
(0.01121947 -0.0004456905 1.116125e-25)
(0.01067671 -0.0006046166 1.206021e-25)
(0.01109179 -0.0003519545 0)
(0.00946439 -0.0006507367 1.332691e-24)
(0.009423708 -0.0006396118 0)
(0.01083872 -0.0009487203 1.30944e-24)
(0.009478824 -0.000676223 -1.541715e-24)
(0.01004549 -0.001046063 0)
(0.008842697 -0.0006028863 1.370327e-24)
(0.009299619 -0.0007523349 1.415474e-24)
(0.009246211 -0.0006838969 -1.446149e-24)
(0.007838846 0.0007642926 1.460482e-24)
(0.01028529 -0.001066633 0)
(0.008735065 -0.001300112 -3.318633e-24)
(0.01028988 -0.0008069562 -2.830497e-25)
(0.008032167 -0.0009014048 -5.443808e-24)
(0.007910732 -0.0007051654 1.488604e-24)
(0.008223913 -0.000985243 0)
(0.00943263 -0.001374527 -2.508338e-24)
(0.009571827 -0.0008623643 1.202621e-24)
(0.00944661 0.0001633024 0)
(0.009441144 0.0002074517 0)
(0.009453759 -0.0004691971 2.821363e-25)
(0.007001216 1.547126e-05 -2.214342e-24)
(0.009310778 0.0001941202 5.754075e-25)
(0.009230999 -0.0005708138 5.155727e-25)
(0.00800725 0.0006751572 1.893178e-24)
(0.009454906 0.0008848972 0)
(0.008774434 0.001192039 -1.670203e-25)
(0.008783185 -0.0006005453 1.430621e-24)
(0.009464652 -8.86431e-05 0)
(0.007374588 -0.001007341 -1.21912e-24)
(0.007874686 -0.0009991428 -4.304872e-24)
(0.00775752 -0.001064546 0)
(0.008815879 0.001030818 7.339781e-25)
(0.008443622 0.0009175503 1.723762e-24)
(0.01099447 -0.0007028268 1.336527e-26)
(0.00746198 0.0005823904 -2.724429e-24)
(0.01038545 -0.0009068342 0)
(0.008272591 -0.0007503788 -2.188756e-24)
(0.008691179 0.001137512 -2.826307e-24)
(0.009375062 -0.0003176069 6.184641e-25)
(0.008191633 0.0005035438 0)
(0.01017982 -0.0012478 2.732413e-24)
(0.01061558 -0.001068517 -1.376955e-24)
(0.008889378 -0.001059245 -6.863666e-25)
(0.007669372 -0.0003555159 -2.579108e-24)
(0.01036695 -0.001120148 5.706535e-26)
(0.009149648 -0.0003159235 -7.182971e-26)
(0.009591634 -0.0003202688 5.513168e-25)
(0.01038007 -0.0005395166 -1.308451e-25)
(0.009682797 -0.0003603027 -4.342938e-25)
(0.008633331 -0.0005083828 0)
(0.008731982 -0.0006427343 -2.745242e-24)
(0.007143337 -0.0006290209 0)
(0.008630667 -0.0006576438 1.738975e-24)
(0.009536041 -0.00014363 -5.563217e-25)