/*--------------------------------*- C++ -*----------------------------------*\
| =========                 |                                                 |
| \\      /  F ield         | OpenFOAM: The Open Source CFD Toolbox           |
|  \\    /   O peration     | Version:  2406                                  |
|   \\  /    A nd           | Website:  www.openfoam.com                      |
|    \\/     M anipulation  |                                                 |
\*---------------------------------------------------------------------------*/
FoamFile
{
    version     2.0;
    format      ascii;
    arch        "LSB;label=32;scalar=64";
    class       surfaceScalarField;
    location    "1.32";
    object      phi;
}
// * * * * * * * * * * * * * * * * * * * * * * * * * * * * * * * * * * * * * //

dimensions      [0 3 -1 0 0 0 0];

oriented        oriented;

internalField   nonuniform List<scalar> 
326221
(
-0.001700115
-0.003708611
0.005408726
-0.0007660061
-0.000934109
9.063355e-05
-0.0008566396
-0.00115957
0.001250204
-0.0008022175
-0.0003573529
6.971116e-05
-0.0008719286
0.0003369662
-0.000267255
0.0005222051
-0.0001852389
0.0004702141
5.199103e-05
0.0002443952
0.0002258188
3.528023e-05
0.000209115
-0.0002309111
0.0002661913
-0.000377906
0.0001469949
-0.0002237479
-0.000154158
0.0001137611
-0.000337509
0.0005551
-0.0004413389
0.0007710279
-0.0002159279
0.0003882337
0.0003827942
-0.0001744873
0.0005627209
-0.0003397351
0.0001652479
-0.0003421305
2.395378e-06
-0.0002952728
-4.685776e-05
-0.0001514662
-0.0001438066
7.049635e-06
-0.0001585158
8.468686e-05
-7.763723e-05
9.855506e-05
-1.386819e-05
0.0001369461
-3.839108e-05
0.0001822975
-4.535133e-05
0.0002448018
-6.250436e-05
0.0002909733
-4.617143e-05
0.0003163272
-2.535389e-05
0.0003283024
-1.197524e-05
0.0003272145
1.08786e-06
0.0002933805
3.383402e-05
0.0003127323
-1.935178e-05
0.000334309
-2.157672e-05
0.0003567505
-2.244143e-05
0.0003758465
-1.909608e-05
0.0004008701
-2.502358e-05
0.0004226521
-2.178198e-05
0.0004348928
-1.224073e-05
0.0004498761
-1.498325e-05
0.0004751635
-2.528744e-05
0.0005162345
-4.107103e-05
0.0006002758
-8.404125e-05
0.0007068014
-0.0001065256
0.0009707939
-0.0002639925
0.001172245
-0.0002014507
0.002112575
-0.00094033
0.003580644
-0.00146807
-0.001117266
0.00469791
-0.001042265
-7.500063e-05
0.0003053521
-0.001347617
0.001027623
-0.0007222712
0.0009490868
7.853658e-05
0.0001417665
0.0008073203
-0.0004591524
0.000600919
-0.0001160376
-0.0003431149
0.0009909028
-0.00110694
0.001872795
-0.0008818922
0.001780238
9.255686e-05
0.00102914
0.0007510982
0.000367394
0.000661746
0.0002010763
0.0001663178
0.0005437315
-0.0003426552
0.001289675
-0.0007459437
0.002042946
-0.0007532707
0.002609555
-0.0005666093
0.003008811
-0.0003992559
0.003236872
-0.0002280611
0.003323688
-8.681566e-05
0.003342169
-1.848119e-05
0.003353473
-1.130393e-05
0.003392517
-3.904398e-05
0.003480219
-8.770209e-05
0.003615001
-0.0001347818
0.00377822
-0.0001632193
0.003950783
-0.0001725633
0.00410425
-0.0001534668
0.004251884
-0.0001476338
0.004398615
-0.0001467305
0.004534937
-0.0001363229
0.004636959
-0.0001020218
0.004623539
1.342001e-05
0.004718849
-9.531015e-05
0.004810928
-9.207841e-05
0.004889287
-7.835957e-05
0.004918504
-2.921671e-05
0.004911775
6.729029e-06
0.004844771
6.700395e-05
0.004704519
0.0001402521
0.004521976
0.000182543
0.004303004
0.0002189721
0.004064846
0.0002381575
0.003810792
0.0002540541
0.003534248
0.0002765444
0.003224503
0.0003097448
0.002865762
0.0003587411
0.002457994
0.0004077678
0.001997203
0.0004607913
0.001480096
0.0005171073
0.0009072819
0.0005728139
0.000266571
0.0006407109
-0.0004067754
0.0006733464
-0.001043632
0.0006368563
-0.001496838
0.0004532067
-0.001635279
0.0001384411
-0.001494372
-0.0001409079
-0.001334248
-0.0001601241
-0.001412208
7.796044e-05
-0.001586947
0.0001747387
-0.001261019
-0.0003259281
-0.0003811129
-0.0008799056
-0.001419037
0.001037924
-0.004400314
0.002981278
-0.005497588
0.001097274
-0.004096417
-0.001401171
-0.002357132
-0.001739285
-0.001157656
-0.001199476
0.0005035799
-0.001661236
0.0008956049
-0.0003920251
-0.001935359
0.002830964
-0.004612268
0.002676909
-0.004294337
-0.0003179311
-0.002541201
-0.001753137
-0.001083394
-0.001457807
0.0005477601
-0.001631154
0.0006581981
-0.000110438
-0.0016654
0.002323599
-0.003728559
0.002063158
-0.003554043
-0.0001745155
-0.002332457
-0.001221586
-0.001287878
-0.001044579
-0.0005612061
-0.000726672
-0.0001073881
-0.000453818
3.338855e-05
-0.0001407767
-0.0002909037
0.0003242923
-0.001441814
0.00115091
-0.002740832
0.001299019
-0.002973051
0.0002322189
-0.002285532
-0.0006875195
-0.001550674
-0.0007348577
-0.001120991
-0.0004296829
-0.001005422
-0.0001155695
-0.001112364
0.0001069427
-0.001196496
8.413191e-05
-0.0009078761
-0.00028862
0.0006582666
-0.001566143
0.001746893
-0.001088627
-0.002667197
0.00441409
-0.002655345
-1.185163e-05
-0.002108672
-0.0005466729
-0.001528586
-0.0005800868
-0.0009818708
-0.0005467149
-0.0003868407
-0.0005950301
0.0002724704
-0.0006593111
0.0009454235
-0.0006729531
0.001540299
-0.000594876
0.002250976
-0.0007106767
0.002889841
-0.000638865
0.003687646
-0.0007978051
0.004489509
-0.0008018632
0.00536314
-0.0008736303
0.006079785
-0.0007166449
0.006547723
-0.0004679388
0.006926893
-0.0003791697
0.007074183
-0.0001472901
0.006947211
0.0001269721
0.006632676
0.000314535
0.006006982
0.0006256938
0.004541908
0.001465074
0.001789499
0.002752409
-0.0008644683
0.002653967
-0.001746038
0.0008815697
-0.001927983
0.0001819453
-0.0005020332
-0.00142595
0.0009249534
-0.001426987
-0.0005032467
0.0014282
-0.002528285
0.002025038
-0.002773283
0.000244998
-0.002042883
-0.0007303998
-0.001317243
-0.0007256403
-0.0008251606
-0.000492082
-0.0001949071
-0.0006302535
-0.0002795166
8.460954e-05
-0.001046948
0.0007674311
-0.001271277
0.0002243297
-0.0006552463
-0.0006160311
-0.0003676846
-0.0002875617
-0.000417589
4.990442e-05
-0.0006248158
0.0002072268
0.0001442534
-0.0007690692
0.0005930758
-0.0004488223
0.0002633483
0.0003297274
-0.0002763485
0.0005396968
-0.001109456
0.0008331077
-0.0008483556
-0.0002611006
0.001871513
-0.002719868
0.002702468
-0.0008309555
-0.006471453
0.009173921
-0.006768309
0.0002968564
-0.005824869
-0.0009434398
-0.005459464
-0.0003654054
-0.005088918
-0.000370546
-0.004811148
-0.0002777701
-0.004557444
-0.0002537037
-0.004337033
-0.0002204112
-0.004045022
-0.0002920111
-0.00389247
-0.0001525522
-0.003761641
-0.0001308285
-0.00364116
-0.0001204808
-0.003533651
-0.0001075094
-0.003430047
-0.0001036041
-0.003331539
-9.850796e-05
-0.003237824
-9.37154e-05
-0.003153727
-8.409685e-05
-0.003076144
-7.7583e-05
-0.003001659
-7.448458e-05
-0.002928453
-7.320597e-05
-0.002860216
-6.823705e-05
-0.002794637
-6.55794e-05
-0.002733239
-6.139809e-05
-0.002677655
-5.558361e-05
-0.002621175
-5.647992e-05
-0.002564962
-5.621282e-05
-0.002508368
-5.659378e-05
-0.002455348
-5.302033e-05
-0.002407222
-4.812653e-05
-0.002362965
-4.425701e-05
-0.002317001
-4.596372e-05
-0.002271756
-4.524445e-05
-0.002224221
-4.753496e-05
-0.00218177
-4.245194e-05
-0.002141961
-3.980824e-05
-0.002100719
-4.124223e-05
-0.002059201
-4.151852e-05
-0.002016891
-4.230955e-05
-0.001978251
-3.864048e-05
-0.001941883
-3.636783e-05
-0.001969276
2.739308e-05
-0.001945561
-2.371483e-05
-0.001917295
-2.826601e-05
-0.001888503
-2.879196e-05
-0.001862312
-2.619104e-05
-0.001834816
-2.749601e-05
-0.001809105
-2.571106e-05
-0.001784455
-2.464938e-05
-0.00176026
-2.41956e-05
-0.001732232
-2.802811e-05
-0.001703175
-2.905646e-05
-0.001676704
-2.647083e-05
-0.001651653
-2.505115e-05
-0.001627956
-2.369737e-05
-0.001599579
-2.837732e-05
-0.001567505
-3.207327e-05
-0.001535608
-3.189696e-05
-0.001503481
-3.212763e-05
-0.001466633
-3.684781e-05
-0.00142877
-3.786333e-05
-0.001385843
-4.292684e-05
-0.001336665
-4.917744e-05
-0.001277468
-5.919717e-05
-0.001201039
-7.642948e-05
-0.001088883
-0.0001121555
-0.0009307357
-0.0001581475
-0.0007012441
-0.0002294916
-0.0003698746
-0.0003313695
-3.040908e-06
-0.0003668337
0.0002865537
-0.0002895946
-0.0002147601
0.0005013138
-0.001536897
0.001322137
-0.0004716681
-0.001065229
0.0006622518
-0.00113392
0.001001847
-0.0003395953
0.00105519
-5.334306e-05
0.001074934
-1.974419e-05
0.001102538
-2.760343e-05
0.00112231
-1.977209e-05
0.001128979
-6.669099e-06
0.00113816
-9.181525e-06
0.001162204
-2.404324e-05
0.001185802
-2.359838e-05
0.001206366
-2.056408e-05
0.001220622
-1.425564e-05
0.001233882
-1.32598e-05
0.001246577
-1.26955e-05
0.001261871
-1.529398e-05
0.001275903
-1.403239e-05
0.001285737
-9.833712e-06
0.001295812
-1.007527e-05
0.001308831
-1.301821e-05
0.001320205
-1.137448e-05
0.001330347
-1.014156e-05
0.001343415
-1.306841e-05
0.001353683
-1.026829e-05
0.001368706
-1.502269e-05
0.001387111
-1.84052e-05
0.001399743
-1.26322e-05
0.001408866
-9.122876e-06
0.001419673
-1.080688e-05
0.001432892
-1.321831e-05
0.001440201
-7.309317e-06
0.001409046
3.115532e-05
0.001427872
-1.88262e-05
0.001452464
-2.459207e-05
0.001476724
-2.426048e-05
0.001500692
-2.396752e-05
0.001526459
-2.57668e-05
0.001549937
-2.347862e-05
0.001570294
-2.035649e-05
0.001592766
-2.247189e-05
0.00161909
-2.632393e-05
0.001648034
-2.894487e-05
0.001671421
-2.338619e-05
0.001692756
-2.133507e-05
0.001716407
-2.365092e-05
0.001742559
-2.615191e-05
0.001769215
-2.6656e-05
0.001799693
-3.047843e-05
0.001831245
-3.155176e-05
0.001862337
-3.109228e-05
0.001893621
-3.128428e-05
0.001921841
-2.821976e-05
0.001957562
-3.572081e-05
0.001995411
-3.784895e-05
0.002034366
-3.895508e-05
0.002076138
-4.177204e-05
0.002119034
-4.28963e-05
0.002167384
-4.834983e-05
0.002221185
-5.380114e-05
0.002275077
-5.389232e-05
0.002333928
-5.885066e-05
0.002402566
-6.863793e-05
0.002487299
-8.473328e-05
0.002660639
-0.0001733396
0.002780395
-0.0001197561
0.002917226
-0.0001368313
0.003071573
-0.0001543466
0.003269755
-0.0001981819
0.003477372
-0.0002076177
0.003957274
-0.0004799014
0.0002486627
-0.000535267
0.001644199
-0.002174161
0.0004957412
-0.002164928
0.0009383402
-0.0007821942
0.001171319
-0.0002863214
0.001350878
-0.0001993033
0.001523099
-0.0001998252
0.001671412
-0.0001680849
0.001792356
-0.0001276133
0.001899465
-0.0001162899
0.00200815
-0.0001327282
0.002108509
-0.000123958
0.002202143
-0.0001141982
0.002285998
-9.810989e-05
0.002365052
-9.231425e-05
0.002438313
-8.595641e-05
0.002510152
-8.713337e-05
0.002577894
-8.177378e-05
0.002640279
-7.221868e-05
0.00269934
-6.91361e-05
0.002758085
-7.176365e-05
0.00281362
-6.69093e-05
0.002866024
-6.254532e-05
0.00291921
-6.625456e-05
0.002968167
-5.922553e-05
0.003019097
-6.595313e-05
0.003070923
-7.023101e-05
0.003119352
-6.106053e-05
0.003163579
-5.335066e-05
0.003208531
-5.575817e-05
0.003253371
-5.805857e-05
0.003295048
-4.898614e-05
0.003263998
6.220513e-05
0.00331452
-6.934813e-05
0.00336796
-7.803176e-05
0.003421144
-7.744514e-05
0.003473996
-7.681947e-05
0.003527453
-7.922401e-05
0.003579915
-7.594009e-05
0.003629186
-6.96279e-05
0.003680233
-7.351896e-05
0.00373217
-7.826083e-05
0.003787381
-8.415552e-05
0.003837886
-7.389111e-05
0.003888049
-7.149817e-05
0.003938522
-7.412389e-05
0.003991117
-7.874682e-05
0.004043389
-7.892796e-05
0.004098704
-8.57933e-05
0.004155139
-8.798706e-05
0.004211324
-8.727777e-05
0.004268744
-8.870359e-05
0.004323103
-8.257929e-05
0.004383755
-9.63727e-05
0.004444558
-9.865181e-05
0.004507991
-0.0001023883
0.004572357
-0.0001061381
0.004639131
-0.0001096702
0.004709019
-0.0001182377
0.00478426
-0.0001290423
0.004859429
-0.0001290613
0.004939654
-0.0001390756
0.005027283
-0.0001562672
0.005128762
-0.0001862117
0.005372829
-0.0004174065
0.005511669
-0.0002585965
0.005671251
-0.0002964129
0.005844009
-0.0003271052
0.006072122
-0.0004262945
0.006263983
-0.0003994783
0.006838578
-0.001054497
0.006064134
0.001023107
-0.01041949
0.009608638
0.001107712
-0.009353324
-0.00200961
-0.0089979
-0.0007208296
-0.008595028
-0.0007734185
-0.008295632
-0.0005771659
-0.008016321
-0.0005330147
-0.007776546
-0.000460186
-0.007394894
-0.0006736633
-0.007218988
-0.0003284581
-0.007062453
-0.0002873629
-0.006914513
-0.0002684216
-0.006778504
-0.0002435177
-0.00664538
-0.0002367281
-0.006518481
-0.0002254073
-0.006394547
-0.0002176489
-0.00628004
-0.0001986043
-0.00616891
-0.0001887131
-0.006062523
-0.0001808719
-0.005956044
-0.0001796847
-0.005855113
-0.000169168
-0.005755365
-0.0001653276
-0.005659696
-0.0001570666
-0.005568018
-0.0001472618
-0.005476149
-0.0001483487
-0.005385492
-0.0001468702
-0.005294407
-0.0001476784
-0.005206944
-0.000140484
-0.005121558
-0.0001335118
-0.005039895
-0.0001259206
-0.00495524
-0.0001306189
-0.004872886
-0.0001275975
-0.004787314
-0.0001331079
-0.004706168
-0.0001235979
-0.004625121
-0.0001208545
-0.004543253
-0.0001231108
-0.004460313
-0.0001244584
-0.004376578
-0.000126044
-0.004294794
-0.0001204249
-0.004213274
-0.0001178879
-0.004234835
4.89544e-05
-0.004165336
-9.3214e-05
-0.004095011
-9.85911e-05
-0.004022616
-0.0001011864
-0.003952589
-9.621833e-05
-0.003879612
-0.0001004731
-0.003807939
-9.738384e-05
-0.003734893
-9.769542e-05
-0.003661548
-9.754039e-05
-0.003583981
-0.0001055955
-0.003505224
-0.0001078136
-0.00342671
-0.0001049846
-0.003347056
-0.0001047049
-0.003266462
-0.0001042922
-0.003179917
-0.0001149217
-0.003089395
-0.0001225958
-0.002996155
-0.0001251369
-0.002900509
-0.0001277729
-0.002797257
-0.0001401007
-0.002690171
-0.0001449491
-0.002573772
-0.000159326
-0.002447363
-0.0001755861
-0.002305685
-0.0002008751
-0.002142333
-0.0002397815
-0.001941684
-0.0003128045
-0.00169782
-0.0004020117
-0.001391182
-0.0005361289
-0.000985825
-0.000736727
-0.0004696441
-0.0008830146
-0.0001342236
-0.0006250151
-0.0005950462
0.0009621364
0.00237129
-0.003480108
0.002910355
0.0005579014
-0.003017761
-0.00100902
-0.002253873
-0.001343974
-0.001571607
-0.001228981
-0.0008326843
-0.001333953
-2.499802e-05
-0.001466997
0.000840127
-0.001538078
0.001635496
-0.001390245
0.002542439
-0.00161762
0.003370023
-0.001466449
0.00436546
-0.001793242
0.005383646
-0.00182005
0.006506675
-0.001996659
0.007490982
-0.001700952
0.008207634
-0.00118459
0.008819902
-0.0009914377
0.009214788
-0.0005421767
0.009413097
-7.133654e-05
0.009527161
0.0002004709
0.009540678
0.0006121774
0.009091074
0.001914678
0.006735054
0.005108429
0.001637105
0.007751917
-0.002086379
0.004605054
-0.002985264
0.00108083
-0.001765767
-0.002645447
-0.0002285572
-0.002964197
-0.001812488
0.00301213
-0.003901208
0.004113758
-0.003601904
-5.430571e-05
-0.002890263
-0.001442041
-0.00214016
-0.001475744
-0.001708187
-0.0009240549
-0.001194707
-0.001143733
-0.001237389
0.0001272917
-0.001720613
0.001250655
-0.001662285
0.0001660022
-0.0009103497
-0.001367967
-0.0006742229
-0.0005236885
-0.0007079192
8.360071e-05
-0.0007011782
0.0002004858
0.0003581543
-0.001828402
0.0009906961
-0.001081364
0.0006337985
0.0006866251
-0.0001885125
0.001362008
-9.948587e-05
0.0007440811
0.0009234579
-0.001284044
0.002801503
-0.004597914
0.0008777277
0.00109282
0.01966029
-0.0003219079
-0.003913119
0.008932937
-0.001282594
0.0008856858
-0.000594801
-0.002035411
0.00044325
-0.001760322
0.0006891933
-0.0001674068
-0.0002037863
0.0017003
-0.0008859814
0.001283114
-0.0006390713
-0.000590025
0.0007435004
-0.002489512
0.002346304
-0.002484696
0.002617952
-0.0001790906
0.001519301
0.001849748
0.0005791755
0.001601872
0.0004032584
0.0003422349
0.0008527074
-0.0007921042
0.001729929
-0.001623166
0.00264107
-0.001664412
0.003387849
-0.001313388
0.00400634
-0.001017747
0.004488888
-0.0007106091
0.00481151
-0.0004094373
0.004984136
-0.0001911069
0.005049256
-7.642435e-05
0.005080665
-7.045316e-05
0.005155572
-0.0001626092
0.005309793
-0.000289003
0.005533216
-0.0003866419
0.005797586
-0.000436933
0.006060015
-0.0004158963
0.006320997
-0.0004086155
0.006578551
-0.0004042844
0.006823512
-0.0003812842
0.007031487
-0.0003099966
0.007083116
-3.820861e-05
0.007289605
-0.0003018
0.007489444
-0.0002919167
0.007678994
-0.0002679099
0.007832464
-0.0001826866
0.007988865
-0.0001496719
0.00815044
-9.457082e-05
0.00829331
-2.618646e-06
0.008413821
6.203259e-05
0.008491611
0.0001411819
0.008525709
0.0002040592
0.008513303
0.0002664605
0.008449208
0.000340639
0.008325361
0.0004335918
0.008126123
0.0005579787
0.007843197
0.0006906944
0.00746191
0.0008420784
0.00696395
0.001015067
0.00631665
0.001220114
0.005468935
0.001488426
0.004387253
0.001755029
0.003081836
0.001942273
0.001634101
0.001900942
2.121484e-05
0.001751327
-0.001646785
0.001527092
-0.002632905
0.0008259958
-0.002982148
0.0004272037
-0.003304342
0.0004969324
-0.003560781
-6.948892e-05
-0.003900022
-0.000540665
-0.005248757
0.002386659
-0.006458685
0.004191205
-0.005232198
-0.0001292131
-0.003047079
-0.00358629
-0.001925744
-0.00286062
-0.001518868
-0.001606352
-0.001259149
-0.001920955
-0.001883944
0.0002327699
-0.004454221
0.005401241
-0.005510802
0.00373349
-0.004236858
-0.001591875
-0.002851882
-0.003138113
-0.001872313
-0.002437376
-0.001149654
-0.002353812
-0.001893832
0.0006337396
-0.004242065
0.004671832
-0.005294219
0.003115312
-0.004348334
-0.001120401
-0.003098844
-0.002471076
-0.00208665
-0.002056773
-0.001469664
-0.001343658
-0.001250985
-0.0006724967
-0.001576039
0.0001842768
-0.002530663
0.001278917
-0.00369622
0.002316467
-0.004107238
0.001710036
-0.003366388
-0.0005086312
-0.002333123
-0.001720785
-0.001549312
-0.001518669
-0.00103536
-0.0009436353
-0.0008060051
-0.0003449241
-0.0007469836
4.792124e-05
-0.0006262476
-3.660414e-05
-0.0003349601
-0.0005799075
0.0008152334
-0.002716336
0.001549999
-0.001823392
0.008874444
-0.0007176264
0.01219049
-0.001873701
0.0002219654
-0.00142789
-0.001302451
-0.001872621
0.001694936
-0.001148124
-0.00108185
-6.890805e-05
-0.001951145
0.0004150812
-0.0007512442
0.0007132592
-0.000483417
0.0007683351
-3.084797e-06
0.0004780198
0.0005161341
-0.0001496806
0.0008368154
-0.0006966285
0.0008131392
-0.0007076978
0.0001580642
-0.0003926348
-0.0004692211
6.989834e-05
-0.0008000421
0.000655456
-0.001026897
0.00110553
-0.0006660016
0.0008515251
0.0006367987
-9.004554e-05
0.001504292
-0.0006688086
0.000744011
-0.0006636865
-2.726764e-06
-0.0005029097
-0.0002076345
-0.0002382652
-0.0004084511
1.254397e-05
-0.000409325
0.0001546455
-0.0002197388
0.0002019409
-6.116361e-05
0.0002530792
-8.952934e-05
0.0003125964
-0.0001048686
0.0004001242
-0.0001500322
0.0004738635
-0.0001199107
0.0005290618
-8.055223e-05
0.0005680775
-5.099093e-05
0.0005971398
-2.797441e-05
0.0005840639
4.690995e-05
0.0006263481
-6.163602e-05
0.0006650006
-6.022926e-05
0.0007119144
-6.93552e-05
0.0007584607
-6.56424e-05
0.0008129698
-7.953271e-05
0.0008684343
-7.724647e-05
0.0009186664
-6.247279e-05
0.0009724095
-6.872631e-05
0.001034897
-8.777547e-05
0.00111029
-0.0001164636
0.001225114
-0.0001988649
0.001363346
-0.0002447583
0.001622949
-0.0005235952
0.002030817
-0.0006093187
0.002815285
-0.001724798
-0.002565904
0.0007061911
-0.007952902
0.0194372
-0.002117271
0.003045427
-0.00219933
-0.001220392
-0.002458114
0.00195372
-0.001549411
-0.001990553
-0.0003076464
-0.003192909
0.0002533898
-0.00131228
0.0006122313
-0.0008422584
0.000803854
-0.0001947075
0.0004288221
0.0008911659
-0.0005090242
0.001774662
-0.001059196
0.001363311
-0.0009214187
2.028697e-05
-0.0005537789
-0.0008368609
-6.266059e-06
-0.001347555
0.0006819961
-0.001715159
0.00122286
-0.001206865
0.00109934
0.0007603185
3.50354e-05
0.002568596
-0.0008627247
0.001641771
-0.0008752375
9.785982e-06
-0.0006093484
-0.0004735236
-0.0002781191
-0.0007396804
-1.267865e-05
-0.0006747654
0.0001422851
-0.0003747025
0.0002136622
-0.0001325407
0.0002811444
-0.0001570115
0.0003411353
-0.0001648595
0.0004183563
-0.0002272531
0.0004881166
-0.0001896711
0.0005513405
-0.0001437761
0.0005999775
-9.9628e-05
0.0006497217
-7.771858e-05
0.0006499276
4.670404e-05
0.0007074791
-0.0001191875
0.0007552448
-0.000107995
0.0008122416
-0.000126352
0.0008666701
-0.0001200709
0.000930929
-0.0001437916
0.0009986976
-0.0001450151
0.001062555
-0.00012633
0.001131273
-0.0001374442
0.001209627
-0.0001661297
0.0013036
-0.0002104368
0.001447581
-0.0003428458
0.001625709
-0.0004228864
0.001976919
-0.0008748047
0.002519785
-0.001152185
0.003586677
-0.002791689
0.004651748
-0.003630975
0.0005347646
0.01304992
-0.001396024
0.002816474
-0.001089201
-0.002342234
-0.0001548225
-0.0026947
5.867835e-05
-0.0003809077
-0.0005710925
0.002330071
-0.0011783
0.001890322
-0.001007794
-0.0007605309
0.0002700346
-0.003767341
0.002191382
-0.004406043
0.002936389
-0.0009240975
0.002102598
0.002683539
0.001212533
0.002491937
0.0009509242
0.000603844
0.001443837
-0.001285017
0.002419705
-0.002599034
0.003431134
-0.00267584
0.00423176
-0.002114014
0.004881816
-0.001667803
0.005408659
-0.001237452
0.005798401
-0.0007991793
0.006041307
-0.0004340129
0.006161345
-0.0001964621
0.006235104
-0.0001442123
0.006361082
-0.0002885869
0.0065825
-0.0005104205
0.006882297
-0.0006864399
0.007222325
-0.0007769605
0.007548443
-0.0007420142
0.007864468
-0.0007246406
0.008170809
-0.0007106259
0.008461404
-0.0006718782
0.00870748
-0.000556073
0.008755138
-8.586676e-05
0.009002316
-0.000548978
0.009240174
-0.0005297741
0.009470364
-0.0004981009
0.00966033
-0.0003726524
0.00985173
-0.0003410716
0.01003906
-0.000281901
0.01020495
-0.0001685041
0.01036709
-0.0001001074
0.01050769
5.754237e-07
0.01062968
8.206654e-05
0.01073062
0.0001655251
0.01080868
0.000262584
0.01086303
0.0003792353
0.01088343
0.0005375841
0.01086602
0.0007080974
0.01080058
0.0009075177
0.01067294
0.001142708
0.01045866
0.001434396
0.01010435
0.001842738
0.009541641
0.002317736
0.008682722
0.002801192
0.007442961
0.003140703
0.005641997
0.003552291
0.003030489
0.0041386
-0.0002026324
0.004059117
-0.002769941
0.002994512
-0.004224518
0.00195151
-0.005150736
0.0008567286
-0.005948239
0.0002568378
-0.006466433
0.002904853
-0.005478423
0.003203195
-0.002927409
-0.002680227
-0.0003355642
-0.006178134
0.0005071745
-0.003703359
-0.0002741068
-0.0008250706
-0.002006489
-0.0001885721
-0.003486378
0.001712659
-0.004835221
0.006750083
-0.004288384
0.003186653
-0.002498062
-0.003382197
-0.001463061
-0.004173114
-0.001616463
-0.002283974
-0.002414858
-0.001555417
-0.003904548
0.002123429
-0.005504633
0.006271917
-0.005366567
0.002977246
-0.004045371
-0.002441597
-0.003031872
-0.003484574
-0.002457371
-0.002631274
-0.002254464
-0.001546566
-0.002504038
-0.0004229227
-0.003266895
0.000947134
-0.004300916
0.002312937
-0.004844646
0.002860198
-0.004386484
0.001251874
-0.00324473
-0.001650386
-0.002053151
-0.002912364
-0.001196947
-0.002374873
-0.0007152067
-0.001425375
-0.0004590824
-0.0006010484
-0.0003011066
-0.0001100546
-0.0001635476
-0.0001741632
0.0001088227
-0.0008522777
0.001280689
-0.003888203
0.001368684
-0.001911387
-0.003573336
0.01381646
-0.00465134
0.001635905
-0.004156425
-0.001503935
-0.003264671
-0.002235728
-0.002382918
-0.002110734
-0.001470374
-0.002246497
-0.0004744805
-0.002462891
0.0006343495
-0.002646908
0.001633766
-0.002389661
0.002731615
-0.002715469
0.003728848
-0.002463682
0.004930666
-0.002995059
0.006171327
-0.003060712
0.007550373
-0.003375705
0.008767093
-0.002917672
0.009638536
-0.002056033
0.01038411
-0.001737014
0.0108473
-0.001005367
0.01102233
-0.0002463664
0.01108047
0.0001423327
0.01104897
0.0006436725
0.01106003
0.00190362
0.01029995
0.005868507
0.005680152
0.01237172
-0.0007413005
0.01102651
-0.003812014
0.004151544
-0.003111694
-0.003345768
-0.002049587
-0.004026303
-0.003497597
0.00446014
-0.004687292
0.005303454
-0.004050861
-0.0006907371
-0.003400167
-0.002092734
-0.002679941
-0.002195971
-0.002349794
-0.001254202
-0.001887308
-0.00160622
-0.001785531
2.551501e-05
-0.002017472
0.001482596
-0.001833747
-1.772304e-05
-0.0009806065
-0.002221107
-0.0007102977
-0.0007939973
-0.0007395393
0.0001128423
-0.0006081019
6.904834e-05
0.0006924195
-0.003128923
0.001393303
-0.001782248
0.001129805
0.0009501237
0.00063063
0.001861183
0.0006539192
0.0007207919
0.001891542
-0.002521668
0.003021875
-0.005728246
-0.001320908
0.005435603
-0.01204448
0.03038386
-0.01276051
0.001823741
-0.01169177
-0.003078346
-0.01123009
-0.00118251
-0.01078093
-0.001222577
-0.01044515
-0.0009129444
-0.01013651
-0.0008416582
-0.009877611
-0.0007190844
-0.009440138
-0.001111137
-0.009247962
-0.0005206341
-0.009073894
-0.00046143
-0.008908909
-0.0004334069
-0.008756435
-0.000395992
-0.008606414
-0.0003867491
-0.008463292
-0.000368529
-0.008322492
-0.0003584486
-0.008191463
-0.0003296332
-0.008062847
-0.00031733
-0.007939423
-0.0003042953
-0.007815144
-0.0003039639
-0.0076968
-0.0002875122
-0.007578916
-0.0002832116
-0.007464891
-0.0002710913
-0.007354604
-0.0002575489
-0.007243795
-0.0002591573
-0.007134573
-0.0002560929
-0.00702452
-0.000257731
-0.006918091
-0.0002469127
-0.00681265
-0.0002389536
-0.006710934
-0.0002276363
-0.006605079
-0.0002364739
-0.006502316
-0.0002303607
-0.006395218
-0.0002402056
-0.006292693
-0.0002261227
-0.006189183
-0.0002243648
-0.006084524
-0.0002277697
-0.005978459
-0.0002305237
-0.005870954
-0.0002335481
-0.005764244
-0.0002271351
-0.005655367
-0.0002267651
-0.00567582
6.940724e-05
-0.00557851
-0.0001905238
-0.005485982
-0.0001911188
-0.005390192
-0.0001969765
-0.005297435
-0.000188976
-0.005200825
-0.0001970826
-0.005105916
-0.0001922934
-0.005009027
-0.0001945845
-0.004912013
-0.000194554
-0.004810319
-0.0002072895
-0.004707722
-0.0002104104
-0.004605522
-0.0002071853
-0.004501762
-0.0002084647
-0.004397166
-0.0002088882
-0.004286293
-0.0002257941
-0.004171842
-0.0002370472
-0.004055036
-0.0002419427
-0.003936325
-0.0002464842
-0.003809647
-0.0002667784
-0.00368029
-0.0002743062
-0.003541852
-0.0002977642
-0.00339459
-0.0003228474
-0.003232851
-0.0003626141
-0.003051
-0.0004216328
-0.002832884
-0.0005309211
-0.0025742
-0.0006606957
-0.002255973
-0.000854355
-0.00185145
-0.00114125
-0.001400093
-0.001334372
-0.001255528
-0.0007695797
-0.001585214
0.001291822
-0.002052571
0.002838646
-0.0007209899
-0.003505742
0.0003503869
-0.003236305
0.0008823586
-0.001314166
0.001238137
-0.0006420999
0.001508876
-0.0004700423
0.001759309
-0.0004502585
0.001974299
-0.0003830744
0.002150404
-0.0003037186
0.002304801
-0.000270687
0.002459561
-0.0002874878
0.002602551
-0.000266948
0.002737177
-0.0002488238
0.00285886
-0.0002197929
0.002974443
-0.0002078978
0.003082452
-0.0001939648
0.003188477
-0.0001931587
0.003289737
-0.0001830335
0.003384469
-0.0001669504
0.003475015
-0.0001596823
0.003564804
-0.0001615528
0.003650792
-0.0001528973
0.003732656
-0.0001444092
0.00381552
-0.0001491193
0.003892571
-0.0001362763
0.003971196
-0.0001445778
0.004050395
-0.0001494301
0.004126203
-0.0001368687
0.004197422
-0.0001245698
0.00426935
-0.0001276859
0.004339649
-0.0001283579
0.004413488
-0.0001228246
0.004395879
7.981382e-05
0.00447488
-0.0001483493
0.004554458
-0.0001576095
0.004632056
-0.0001550434
0.004708694
-0.0001534568
0.004785392
-0.0001559224
0.004861226
-0.0001517741
0.004933284
-0.0001416855
0.005006814
-0.0001470494
0.005079655
-0.0001511023
0.005156118
-0.0001606184
0.005227411
-0.0001451836
0.005298746
-0.0001428336
0.005369483
-0.0001448607
0.005442048
-0.0001513117
0.005513416
-0.0001502961
0.005587458
-0.0001598357
0.005662286
-0.0001628142
0.005736534
-0.000161526
0.005812629
-0.0001647984
0.005884672
-0.0001546222
0.005963064
-0.0001747655
0.006040242
-0.0001758293
0.006120293
-0.000182439
0.006200459
-0.0001863046
0.006282838
-0.0001920488
0.006367286
-0.0002026858
0.006456841
-0.000218598
0.006545638
-0.0002178584
0.006638886
-0.000232323
0.006739257
-0.0002566383
0.006848683
-0.0002956375
0.007131496
-0.0007002197
0.007278575
-0.0004056756
0.007451087
-0.0004689247
0.007638716
-0.0005147344
0.007889016
-0.000676595
0.008115828
-0.0006262899
0.008698582
-0.001637252
0.001768788
-0.0009368461
0.002415193
-0.004984089
0.0001450785
-0.004318229
0.0008315805
-0.002000668
0.001325797
-0.001136316
0.001689749
-0.0008339949
0.00201266
-0.0007731691
0.002286283
-0.0006566973
0.002509775
-0.0005272103
0.002703736
-0.0004646487
0.002896433
-0.0004801844
0.003073877
-0.0004443923
0.003241464
-0.0004164105
0.00339345
-0.0003717794
0.003537748
-0.0003521952
0.003672798
-0.0003290147
0.003804915
-0.0003252763
0.003931703
-0.0003098213
0.00405021
-0.0002854574
0.00416397
-0.0002734422
0.004276383
-0.0002739662
0.004384276
-0.0002607903
0.004487145
-0.0002472779
0.004591374
-0.000253348
0.004688224
-0.0002331269
0.004787031
-0.0002433848
0.004886601
-0.0002489996
0.004981714
-0.0002319814
0.005072133
-0.0002149889
0.00516295
-0.0002185031
0.005251754
-0.0002171623
0.005346406
-0.0002174764
0.005332335
9.388513e-05
0.005430205
-0.0002462194
0.005530385
-0.0002577894
0.005626973
-0.0002516317
0.005722504
-0.0002489881
0.005818184
-0.0002516021
0.005912607
-0.0002461967
0.006002708
-0.0002317871
0.006094331
-0.0002386717
0.006185027
-0.0002417986
0.006279861
-0.0002554527
0.00636855
-0.0002338721
0.006457305
-0.0002315891
0.006545415
-0.0002329706
0.006635252
-0.0002411491
0.006723517
-0.0002385602
0.006814894
-0.0002512131
0.006906859
-0.0002547791
0.006998133
-0.0002528
0.007091671
-0.0002583365
0.007179874
-0.0002428254
0.007275986
-0.0002708775
0.007369779
-0.0002696222
0.007466747
-0.0002794069
0.007564005
-0.000283563
0.007662924
-0.0002909676
0.007764628
-0.0003043893
0.00787158
-0.0003255501
0.007977253
-0.0003235311
0.008087873
-0.0003429437
0.008206622
-0.0003753866
0.008508274
-0.0005972896
0.008668619
-0.000860565
0.008837728
-0.000574785
0.009039239
-0.0006704356
0.009265014
-0.0007405091
0.009558776
-0.0009703566
0.009875812
-0.0009433262
0.01041108
-0.002172518
0.009881949
0.002297917
-0.01519363
0.01481007
0.002207299
-0.01418365
-0.004088323
-0.01354459
-0.001821567
-0.01301277
-0.001754403
-0.01260521
-0.0013205
-0.01223936
-0.001207511
-0.01193665
-0.001021797
-0.01165615
-0.001391628
-0.01119146
-0.0009853253
-0.01098876
-0.0006641384
-0.01079634
-0.0006258209
-0.01061914
-0.0005731897
-0.01044482
-0.0005610696
-0.01027852
-0.0005348282
-0.01011507
-0.0005219001
-0.009962678
-0.0004820277
-0.009813537
-0.0004664705
-0.009670263
-0.0004475694
-0.009525987
-0.0004482394
-0.009388647
-0.0004248523
-0.009252073
-0.0004197858
-0.009119495
-0.0004036696
-0.00899185
-0.0003851942
-0.008863364