/*--------------------------------*- C++ -*----------------------------------*\
| =========                 |                                                 |
| \\      /  F ield         | OpenFOAM: The Open Source CFD Toolbox           |
|  \\    /   O peration     | Version:  2406                                  |
|   \\  /    A nd           | Website:  www.openfoam.com                      |
|    \\/     M anipulation  |                                                 |
\*---------------------------------------------------------------------------*/
FoamFile
{
    version     2.0;
    format      ascii;
    arch        "LSB;label=32;scalar=64";
    class       volVectorField;
    location    "0.52";
    object      U;
}
// * * * * * * * * * * * * * * * * * * * * * * * * * * * * * * * * * * * * * //

dimensions      [0 1 -1 0 0 0 0];

internalField   nonuniform List<vector> 
15536
(
(0.1101708 -4.198613 -2.956091e-22)
(0.1887779 -3.169523 -1.571876e-19)
(0.1802436 -2.025776 -2.234999e-19)
(0.07295077 -0.8300309 -1.832546e-19)
(-0.06968973 0.2124036 -3.653988e-21)
(-0.2163009 0.8753155 1.955347e-21)
(-0.4048747 1.478834 6.073114e-21)
(-0.5937333 1.947272 -5.999925e-21)
(-0.7077576 2.119202 1.880401e-18)
(-0.5653567 1.585297 1.949241e-18)
(-0.1203653 0.320646 0)
(-0.08940024 0.1044941 0)
(-0.4295569 0.7081393 -1.28945e-20)
(-0.6068954 1.045857 3.258894e-18)
(-0.1363539 0.2920137 1.630323e-18)
(0.6955215 -0.8759851 -3.409466e-18)
(1.135944 -1.408208 1.668667e-18)
(1.042665 -1.233291 1.058966e-20)
(0.794475 -0.8953178 -2.02894e-20)
(0.6401784 -0.6689713 9.723512e-21)
(0.9972844 -0.9042546 0)
(1.008787 -0.8605526 1.445066e-18)
(-0.4101782 0.2531976 0)
(-2.279773 1.58937 4.065759e-18)
(-3.779217 2.50983 -3.961465e-20)
(-5.081768 3.135098 -6.75193e-20)
(-5.819728 3.353921 6.705563e-20)
(-5.964167 3.31963 -8.081885e-18)
(-0.7736786 0.8050912 -4.793238e-18)
(5.949786 -2.377787 0)
(3.936441 -1.610269 -6.650028e-21)
(-0.2774661 -0.06028815 -1.455681e-18)
(-1.987531 0.4522688 2.188703e-18)
(-3.724344 0.7794206 0)
(-6.212838 1.108227 -4.081239e-18)
(-8.924437 1.478453 -2.741871e-20)
(-8.302967 1.361241 3.81325e-18)
(-2.749055 0.4978581 -1.550372e-18)
(1.719614 -0.1211636 1.279469e-21)
(-0.2645943 -0.1667572 -3.373384e-19)
(4.392666 0.4560034 1.28286e-18)
(9.091332 1.231294 -2.026164e-20)
(11.45178 1.941415 1.960708e-20)
(12.59561 2.605108 0)
(13.15663 3.272746 -5.176177e-18)
(13.41554 3.911288 -5.17828e-18)
(13.45248 4.506665 0)
(13.3515 5.065035 -9.953205e-18)
(13.13912 5.585691 9.724042e-18)
(12.86253 6.077942 9.38844e-18)
(12.52908 6.53356 3.412832e-20)
(12.13267 6.94624 -8.486349e-18)
(11.68253 7.311724 0)
(11.18806 7.631351 0)
(10.6588 7.901639 6.737031e-18)
(10.09338 8.114923 6.117348e-18)
(9.509485 8.281269 3.97575e-20)
(8.913547 8.398962 4.664934e-18)
(8.293748 8.450448 7.975911e-18)
(7.662612 8.443421 3.255334e-18)
(7.028134 8.38083 2.46567e-18)
(6.40303 8.27105 -1.660386e-20)
(5.784556 8.104863 0)
(5.170602 7.876221 1.889259e-19)
(4.573937 7.600475 0)
(3.993198 7.263618 1.361923e-18)
(3.435545 6.872261 -2.849529e-20)
(2.910807 6.436094 -2.652346e-21)
(2.418838 5.952899 1.239666e-20)
(1.964299 5.427185 -4.16685e-18)
(1.552726 4.866793 -1.970194e-20)
(1.185095 4.269288 2.69851e-18)
(0.8631243 3.635556 2.943261e-18)
(0.5920047 2.979085 0)
(0.3715729 2.305086 0)
(0.2061948 1.608264 3.508029e-18)
(0.09211877 0.8995098 -1.032724e-22)
(0.03311057 0.2140882 9.419218e-19)
(0.02202595 -0.4392871 1.716246e-21)
(0.06513608 -1.143352 -7.016144e-21)
(0.1604415 -1.894329 -1.732489e-18)
(0.3142212 -2.640598 0)
(0.5249748 -3.364293 3.074319e-18)
(0.7894324 -4.060297 0)
(1.105913 -4.72676 -2.538838e-18)
(1.472295 -5.36217 2.206868e-18)
(1.887519 -5.964515 1.612096e-20)
(2.348225 -6.532529 3.104964e-18)
(2.851304 -7.057237 7.670947e-21)
(3.392135 -7.536201 -1.600792e-18)
(3.96798 -7.971094 -7.770484e-19)
(4.576326 -8.356088 2.536661e-21)
(5.214615 -8.69423 9.544367e-19)
(5.873028 -8.98093 -1.838556e-18)
(6.547736 -9.211153 2.465095e-20)
(7.227721 -9.371785 6.98895e-21)
(7.918133 -9.478029 -4.462374e-18)
(8.614444 -9.529912 0)
(9.307528 -9.51912 1.224542e-17)
(9.999889 -9.456864 6.885805e-18)
(10.67125 -9.328552 1.196109e-19)
(11.3182 -9.137208 -8.605569e-18)
(11.93659 -8.886327 0)
(12.52492 -8.579976 0)
(13.0822 -8.226586 0)
(13.59953 -7.824057 0)
(14.06651 -7.373496 1.186348e-17)
(14.47964 -6.87889 1.247356e-17)
(14.83892 -6.345213 3.066739e-20)
(15.1388 -5.780857 -1.33e-17)
(15.35746 -5.181897 -6.764091e-18)
(15.46826 -4.54899 -6.959307e-18)
(15.42572 -3.880501 5.437167e-20)
(15.19401 -3.182606 7.0418e-18)
(14.72458 -2.468365 3.605111e-18)
(13.89805 -1.763679 -2.780881e-20)
(12.3409 -1.113484 -6.600723e-21)
(9.309337 -0.5215031 4.367856e-19)
(3.708985 -0.08181492 -8.825312e-19)
(-0.5821792 0.1978359 -2.158424e-20)
(1.754 0.2204629 1.417321e-20)
(-4.131625 -1.020153 4.257269e-18)
(-9.735832 -2.336507 3.465436e-20)
(-9.465018 -2.32927 0)
(-6.54135 -1.712732 -5.206145e-18)
(-3.933205 -1.157146 -3.882129e-18)
(-2.205054 -0.6826906 -4.664828e-21)
(-0.1961782 0.1158256 4.448268e-18)
(5.005483 2.528993 -1.166715e-18)
(5.827199 2.797117 0)
(-2.49895 -1.954756 0)
(-7.070732 -4.651624 -1.146846e-17)
(-6.178425 -4.164237 0)
(-4.764898 -3.496584 7.013502e-20)
(-3.384664 -2.644306 -8.04514e-18)
(-1.79672 -1.518513 -5.647984e-18)
(-0.5663749 -0.4662416 2.395345e-20)
(0.238782 0.3016715 -5.117665e-18)
(0.4815691 0.5194934 -3.549573e-20)
(-0.1911264 -0.325054 4.505413e-18)
(-0.9468449 -1.332501 2.504625e-18)
(-0.8488873 -1.173892 2.620199e-18)
(-0.08387323 -0.01569543 2.842424e-18)
(0.6768938 1.149646 0)
(0.9119603 1.55396 -1.679397e-20)
(0.3043943 0.4970376 -4.546525e-18)
(-0.2797843 -0.6887974 0)
(-0.6858194 -1.830815 4.066333e-18)
(-0.6180421 -1.714755 -2.803928e-20)
(-0.1912288 -0.4342185 1.332948e-20)
(0.2056137 0.9036725 1.706077e-18)
(0.2022382 0.8396955 -7.554439e-23)
(-0.2401464 -2.117754 0)
(-0.4593938 -4.629923 8.327113e-19)
(-0.4290695 -5.594332 6.422928e-21)
(-0.2486802 -5.516055 1.294943e-21)
(-0.04354547 -5.005205 -1.769916e-21)
(-0.05394935 -4.446312 -9.219943e-20)
(0.05064007 -3.355305 1.283111e-19)
(0.06815341 -2.155878 0)
(-0.02993588 -0.907003 1.505255e-19)
(-0.1433858 0.1878979 0)
(-0.2902017 0.917416 9.475376e-19)
(-0.5007475 1.578842 4.972728e-21)
(-0.7070577 2.106556 -4.924608e-21)
(-0.8556836 2.429984 -1.545608e-18)
(-0.884666 2.467809 -1.573542e-18)
(-0.5700672 1.548357 0)
(-0.4321839 0.8614826 1.130743e-20)
(-0.545352 0.8451572 -6.693733e-22)
(-0.6928186 1.213851 -1.336581e-18)
(0.07253515 0.1732554 -2.667909e-18)
(1.126281 -1.34421 1.36848e-18)
(1.237002 -1.556814 -1.344552e-18)
(1.014941 -1.271726 -1.005403e-20)
(0.8166887 -0.9563949 0)
(1.188412 -1.160688 0)
(1.980012 -1.786183 0)
(1.258483 -1.281775 1.160858e-18)
(-0.9212774 0.3319091 1.986445e-20)
(-2.764786 1.685663 -1.937438e-20)
(-4.233438 2.604256 4.569688e-20)
(-5.453876 3.140686 -4.440317e-20)
(-6.179022 3.358818 0)
(-6.390454 3.52285 0)
(-3.096417 2.464717 7.165453e-18)
(6.781684 -2.544437 9.676179e-22)
(4.816969 -2.269075 -9.547483e-22)
(1.702605 -0.9251286 1.164116e-18)
(0.8976803 -0.455837 1.818568e-18)
(-0.05662645 -0.2893569 -2.352545e-20)
(-1.910498 -0.07303806 -3.507114e-18)
(-3.687876 0.2828796 2.836094e-18)
(-7.134372 1.141893 -1.227751e-21)
(-4.473342 0.8959659 1.175062e-18)
(3.939468 0.1379336 0)
(9.588535 0.5377655 2.283556e-19)
(13.94198 1.249846 1.73273e-18)
(16.54699 1.741211 1.809539e-18)
(16.97194 2.159605 1.917606e-18)
(16.99988 2.695156 -6.158017e-20)
(16.86852 3.308356 4.107e-18)
(16.65864 3.922649 -3.150183e-20)
(16.38842 4.537825 0)
(16.06122 5.133313 7.927234e-18)
(15.68692 5.710437 0)
(15.27042 6.261704 -5.644993e-20)
(14.79925 6.769905 5.65684e-20)
(14.27318 7.232712 6.775585e-18)
(13.69925 7.643798 -4.734721e-20)
(13.08491 8.002831 5.881808e-18)
(12.43795 8.305856 -5.420236e-18)
(11.76185 8.550284 0)
(11.06667 8.744042 3.13678e-20)
(10.35921 8.882544 -3.828567e-18)
(9.635577 8.953439 -6.341688e-18)
(8.900554 8.958315 0)
(8.166132 8.906728 -1.98092e-18)
(7.440995 8.799704 -8.056112e-21)
(6.725967 8.630017 7.164109e-19)
(6.02213 8.396973 -1.581357e-21)
(5.335714 8.106414 1.600067e-21)
(4.672187 7.754184 -1.105653e-18)
(4.034374 7.344198 1.7138e-18)
(3.432725 6.881148 0)
(2.868491 6.370136 0)
(2.346857 5.814971 -1.605488e-20)
(1.872145 5.217465 0)
(1.44746 4.57916 0)
(1.074823 3.902855 0)
(0.7590948 3.198664 -2.615762e-18)
(0.4988141 2.476518 2.095191e-20)
(0.3059677 1.72825 1.149357e-20)
(0.1684115 0.968885 -5.611756e-21)
(0.09605612 0.2298158 -7.736958e-19)
(0.08441555 -0.4802553 3.078656e-21)
(0.148003 -1.237594 -7.467159e-19)
(0.2652084 -2.040939 1.410451e-18)
(0.4500997 -2.838171 1.070304e-20)
(0.6998459 -3.610376 -2.489813e-18)
(1.010047 -4.354028 -3.608223e-20)
(1.379577 -5.067521 2.100874e-18)
(1.804725 -5.744486 -1.836748e-18)
(2.28593 -6.384457 0)
(2.815687 -6.987187 -5.070922e-18)
(3.392458 -7.53829 -1.275043e-20)
(4.013126 -8.041014 1.298238e-18)
(4.67186 -8.498918 6.358464e-19)
(5.366258 -8.898829 0)
(6.094267 -9.244068 0)
(6.846916 -9.538754 0)
(7.617595 -9.765146 1.936324e-20)
(8.400779 -9.920494 -1.922834e-20)
(9.195749 -10.016 3.503866e-18)
(9.996963 -10.04976 5.62154e-21)
(10.80019 -10.01799 -4.949064e-18)
(11.59938 -9.925602 -8.13806e-20)
(12.38408 -9.767657 1.242072e-17)
(13.14612 -9.541794 6.833984e-18)
(13.88129 -9.250747 -5.535852e-20)
(14.59191 -8.901082 7.849355e-18)
(15.27277 -8.497823 6.388707e-20)
(15.91535 -8.037072 -7.17588e-20)
(16.51204 -7.524484 7.145968e-20)
(17.05885 -6.962912 7.786546e-20)
(17.55563 -6.358732 1.020638e-17)
(17.99756 -5.716528 -8.026531e-20)
(18.37175 -5.040584 0)
(18.69258 -4.340592 0)
(18.97327 -3.6298 0)
(19.1972 -2.920204 0)
(19.33817 -2.215041 2.092937e-20)
(19.36635 -1.530567 -2.081544e-20)
(19.17716 -0.9527514 1.25113e-18)
(18.3757 -0.532473 4.740672e-21)
(14.84638 -0.1889213 0)
(9.983274 0.2562969 -1.268045e-18)
(3.135044 0.05469112 2.578061e-18)
(-5.672456 -1.554815 -3.312272e-18)
(-7.563121 -1.767026 5.86298e-20)
(-3.615303 -0.4584879 -7.022295e-18)
(-1.659355 0.02565085 4.220078e-20)
(0.2145486 0.3878026 0)
(1.034532 0.6024997 5.312868e-18)
(1.934476 1.27448 -6.924295e-18)
(5.896624 3.289758 -9.037017e-19)
(6.086788 2.521538 2.137244e-20)
(-5.411984 -4.20479 -8.244434e-20)
(-7.465066 -4.818251 6.09629e-20)
(-6.793163 -4.238956 0)
(-5.451627 -3.755462 8.201648e-18)
(-4.063639 -2.888339 6.299421e-18)
(-2.2281 -1.59014 1.491934e-20)
(-0.4886227 -0.1584788 -2.885713e-18)
(0.3732076 0.4887135 4.211459e-18)
(0.06611738 -0.01592864 1.739824e-18)
(-0.8329472 -1.196855 -1.421284e-21)
(-1.37566 -1.873795 -2.018823e-18)
(-1.062608 -1.293458 -1.628039e-20)
(-0.2923617 -0.07348587 -2.30198e-18)
(0.4789463 1.044718 2.55143e-20)
(0.9688617 1.740169 5.956058e-21)
(1.07208 1.784997 -3.257709e-20)
(0.558849 0.7601389 0)
(-0.4787347 -1.388793 0)
(-0.5889091 -1.23249 -2.917271e-18)
(-0.1792026 0.1726488 0)
(0.2533886 1.201912 -2.838644e-18)
(-0.01085374 -1.168317 1.30776e-18)
(-0.6091971 -5.195737 -1.007075e-20)
(-0.7729706 -6.477132 1.005187e-20)
(-0.6634342 -6.253124 6.644854e-19)
(-0.4649614 -5.918712 -3.029016e-19)
(-0.2326808 -5.33257 -1.199688e-19)
(-0.1217634 -4.406626 7.386416e-20)
(-0.05358616 -3.322154 -1.037239e-19)
(-0.05061884 -2.134804 2.096184e-21)
(-0.1569662 -0.9000265 -1.246923e-19)
(-0.2320709 0.1821662 0)
(-0.3634952 0.9240892 -7.77105e-19)
(-0.5705785 1.586565 -8.152142e-21)
(-0.7533592 2.138154 5.737547e-19)
(-0.8493033 2.403806 1.280251e-18)
(-0.8811569 2.536789 1.296073e-18)
(-0.7608025 2.144807 1.275579e-18)
(-0.693584 1.507544 -9.905667e-21)
(-0.6469185 1.021863 0)
(-0.5099672 1.031028 0)
(0.4289635 -0.09445718 1.061246e-18)
(1.269179 -1.379271 1.131317e-18)
(1.219617 -1.533045 1.134785e-18)
(1.031233 -1.332502 1.656451e-20)
(0.8688389 -0.98791 0)
(1.452546 -1.315508 8.029763e-19)
(2.079176 -1.891979 8.479901e-19)
(0.7739313 -1.130776 -9.399127e-19)
(-1.432732 0.4035467 0)
(-3.069023 1.674815 2.595486e-18)
(-4.366275 2.539453 0)
(-5.347103 2.954611 -5.33176e-18)
(-5.859431 3.215749 0)
(-5.555647 3.284456 -5.511981e-18)
(-4.079319 3.65133 -5.708572e-18)
(5.390466 -1.504801 0)
(5.507722 -2.638422 0)
(4.671146 -1.904017 -5.43628e-21)
(4.837896 -1.52842 -1.397876e-18)
(4.415133 -1.440755 1.779299e-18)
(3.022665 -1.244717 5.579792e-18)
(0.9689562 -0.6211632 -2.40284e-18)
(-1.685995 0.5554428 2.890599e-18)
(-1.792576 1.055385 -9.309402e-19)
(9.90942 0.7720275 0)
(15.52758 1.155293 0)
(16.77818 1.681547 -1.352803e-18)
(16.75902 2.053315 -1.489809e-18)
(16.5191 2.527676 -3.128765e-18)
(16.47335 3.147652 3.219139e-18)
(16.36314 3.794088 7.76073e-20)
(16.19469 4.42992 -5.208275e-20)
(15.95583 5.044457 0)
(15.64427 5.623016 0)
(15.27062 6.17357 6.229839e-18)
(14.85028 6.695197 -6.022381e-18)
(14.37979 7.172536 0)
(13.85643 7.603975 0)
(13.28878 7.982363 7.763407e-20)
(12.68247 8.310168 -4.903626e-18)
(12.04649 8.581405 0)
(11.38454 8.793129 -3.909426e-18)
(10.70463 8.95653 -3.474642e-18)
(10.01527 9.065585 -2.980256e-18)
(9.313411 9.1064 2.546173e-18)
(8.60028 9.083771 -2.842334e-20)
(7.888785 9.007814 1.571631e-18)
(7.187351 8.878821 0)
(6.498517 8.687935 -5.834498e-19)
(5.822743 8.435216 2.959273e-21)
(5.1637 8.128171 7.803215e-21)
(4.531867 7.759121 -9.725855e-19)
(3.922604 7.336841 0)
(3.348882 6.863878 -1.933046e-18)
(2.810777 6.345917 -2.011135e-20)
(2.315566 5.785739 2.818527e-18)
(1.864588 5.186106 1.614281e-18)
(1.461983 4.547622 -1.801295e-18)
(1.108457 3.873179 -1.975734e-18)
(0.8086003 3.172132 2.1273e-18)
(0.5591896 2.455042 -2.267987e-18)
(0.3784226 1.711568 -1.159332e-18)
(0.2422719 0.9589821 2.43874e-18)
(0.1679354 0.227472 1.265079e-18)
(0.1545827 -0.4792951 2.536315e-21)
(0.2266363 -1.232285 6.182188e-19)
(0.3379126 -2.030328 -9.210404e-21)
(0.5133078 -2.821278 0)
(0.749492 -3.588356 -1.553921e-20)
(1.041348 -4.328755 -1.304482e-20)
(1.390009 -5.040337 -1.664307e-18)
(1.790006 -5.717316 3.01702e-18)
(2.247525 -6.357936 -1.298273e-18)
(2.748482 -6.964847 2.058598e-18)
(3.294031 -7.522472 1.43974e-20)
(3.885513 -8.03302 0)
(4.512424 -8.502752 5.757103e-19)
(5.174484 -8.916719 -4.323125e-21)
(5.872646 -9.277056 5.349463e-19)
(6.594976 -9.590769 0)
(7.334333 -9.83933 1.685964e-18)
(8.089479 -10.01769 0)
(8.857127 -10.1394 -5.52111e-20)
(9.631077 -10.20239 3.38428e-18)
(10.41119 -10.19984 0)
(11.18682 -10.14087 -4.553272e-18)
(11.95033 -10.01818 -5.095134e-18)
(12.69366 -9.828649 -5.60341e-18)
(13.4122 -9.57441 0)
(14.11017 -9.260644 -1.31148e-17)
(14.78051 -8.894942 1.049085e-19)
(15.41553 -8.470932 0)
(16.00744 -7.995548 0)
(16.55242 -7.469587 0)
(17.05018 -6.900465 8.270176e-18)
(17.49325 -6.297723 -8.534669e-18)
(17.87374 -5.656176 0)
(18.18311 -4.980065 0)
(18.42776 -4.2747 4.42791e-18)
(18.60978 -3.546745 3.520405e-20)
(18.71551 -2.810966 0)
(18.75534 -2.075182 0)
(18.74391 -1.38201 -2.081451e-18)
(19.01998 -0.8510828 2.383642e-19)
(18.80227 -0.4241351 0)
(17.06008 0.06769823 8.65732e-19)
(9.671754 -0.1109227 5.923333e-20)
(-2.972074 -1.427517 -9.839949e-22)
(-0.9324151 -0.4637316 -5.494453e-20)
(1.724482 1.023685 5.831355e-18)
(3.801426 1.781773 3.483324e-18)
(5.188992 2.076115 4.725997e-20)
(5.446461 2.16553 2.695306e-20)
(5.121718 2.62442 2.693847e-18)
(6.265278 3.530289 7.524508e-19)
(4.16226 0.8306558 0)
(-5.911239 -5.280014 4.713827e-18)
(-6.770483 -4.527843 0)
(-6.674006 -4.001642 -1.070017e-19)
(-5.742184 -3.842995 -6.564659e-18)
(-4.68493 -3.138507 6.677322e-20)
(-3.037597 -2.007828 -6.909173e-20)
(-1.313773 -0.6817461 2.328827e-18)
(-0.2069636 -0.07756757 -1.73386e-18)
(-0.4155964 -0.6792706 -1.412205e-18)
(-1.031078 -1.588415 -1.485154e-18)
(-1.387145 -1.947196 -1.655131e-18)
(-1.157626 -1.268573 0)
(-0.4091123 0.03780944 -4.593772e-21)
(0.420205 1.120766 0)
(0.8168031 1.592097 -2.922778e-18)
(1.125026 1.932134 3.014253e-18)
(1.160037 1.787391 0)
(0.3435285 0.2145358 0)
(-0.2147955 -0.1277844 4.899804e-18)
(-0.1468263 0.5138605 -1.108743e-18)
(0.06772026 -0.2158672 2.278095e-18)
(-0.2038303 -3.564641 -7.97372e-21)
(-0.6028831 -6.290167 7.721783e-21)
(-0.6598583 -6.264646 0)
(-0.5765172 -6.162053 -5.489199e-19)
(-0.4092082 -5.89535 4.86374e-19)
(-0.2430696 -5.288709 9.928858e-20)
(-0.2500109 -4.385478 -1.207524e-19)
(-0.196702 -3.300082 -2.251274e-21)
(-0.1968493 -2.113961 2.295886e-21)
(-0.312783 -0.8860201 -3.480535e-21)
(-0.3422221 0.1818929 3.588088e-21)
(-0.4541946 0.9362779 3.184798e-19)
(-0.6604922 1.610463 -6.687544e-21)
(-0.8147361 2.165631 -4.734364e-19)
(-0.8912699 2.450111 1.5638e-20)
(-0.8644847 2.508913 -1.057652e-18)
(-0.789094 2.31696 -1.644189e-20)
(-0.7562532 1.797433 0)
(-0.6370529 1.094283 0)
(-0.2286778 0.7801515 -9.041048e-19)
(0.789332 -0.3310972 -8.911949e-19)
(1.339489 -1.316962 -1.861967e-18)
(1.255512 -1.583629 -9.364018e-19)
(1.061923 -1.427794 0)
(0.897207 -1.00987 0)
(1.440603 -1.198115 -1.313913e-18)
(1.809469 -1.700123 -1.414588e-18)
(0.2253243 -1.00662 1.549337e-20)
(-1.726125 0.2766024 -4.081433e-20)
(-3.173095 1.493698 -4.211064e-18)
(-4.274976 2.315009 -3.363781e-18)
(-4.963013 2.598681 4.481371e-18)
(-5.323059 2.910142 5.270372e-18)
(-4.963329 3.020099 4.456029e-18)
(-3.868946 4.336967 2.37088e-18)
(3.873665 -0.1665379 0)
(6.38414 -2.812094 -1.405418e-20)
(7.510921 -2.685327 -1.470796e-18)
(8.422165 -2.464225 8.766433e-21)
(8.493691 -2.504763 2.213563e-20)
(7.687878 -2.450138 -2.098657e-18)
(5.902493 -1.794762 -1.754769e-18)
(3.058929 -0.2070238 -4.665739e-20)
(5.215946 1.34177 -6.877807e-19)
(14.95615 1.433007 -2.337753e-19)
(16.94202 1.304805 -1.947147e-21)
(16.48863 1.470488 0)
(16.42995 1.738479 -1.934847e-20)
(16.54618 2.149217 1.321487e-18)
(16.60713 2.707612 -5.326217e-18)
(16.55071 3.323594 4.206969e-20)
(16.40259 3.950233 -2.72919e-18)
(16.1662 4.5683 -8.286047e-20)
(15.85824 5.152701 -5.207121e-18)
(15.48798 5.712612 -8.045586e-21)
(15.06929 6.252116 4.969299e-18)
(14.60181 6.744886 -4.665991e-18)
(14.08047 7.195656 0)
(13.5141 7.593352 6.267677e-20)
(12.90698 7.943338 -6.303957e-20)
(12.26832 8.238158 0)
(11.60188 8.474393 3.221463e-18)
(10.91636 8.6622 6.600088e-20)
(10.2202 8.795617 2.491513e-18)
(9.511622 8.859581 -2.033408e-18)
(8.793031 8.856907 -1.630208e-18)
(8.072556 8.802414 -1.269984e-18)
(7.362908 8.69343 -8.214202e-19)
(6.666236 8.520993 3.432787e-21)
(5.981255 8.286229 -3.466412e-21)
(5.312481 7.996823 0)
(4.671595 7.643771 7.903902e-19)
(4.052732 7.236741 -2.177534e-20)
(3.4704 6.777501 1.609874e-18)
(2.924326 6.272045 1.939868e-18)
(2.423718 5.722638 -2.28621e-18)
(1.967213 5.133252 -1.324718e-18)
(1.559983 4.504349 -3.407331e-21)
(1.202306 3.839145 1.620277e-18)
(0.9012138 3.146107 2.791155e-20)
(0.6485066 2.437118 1.816406e-18)
(0.4696669 1.698775 1.522961e-20)
(0.3310702 0.9504324 -1.018387e-18)
(0.2538331 0.2244386 -5.152232e-19)
(0.238828 -0.4832385 -6.294016e-23)
(0.3218647 -1.2336 4.905812e-19)
(0.4344612 -2.026144 7.542299e-21)
(0.6108869 -2.810424 -9.019264e-19)
(0.8505581 -3.570319 1.689902e-18)
(1.146289 -4.302019 0)
(1.499282 -5.003081 -4.13848e-21)
(1.90355 -5.668106 -1.241359e-18)
(2.367976 -6.295579 1.093183e-18)
(2.874139 -6.88964 -1.779818e-18)
(3.429729 -7.431381 1.783824e-20)
(4.032793 -7.925492 -1.766771e-20)
(4.666567 -8.380632 -4.730989e-19)
(5.339181 -8.776616 0)
(6.05199 -9.11651 -4.465359e-19)
(6.782034 -9.413385 2.777899e-20)
(7.530672 -9.642023 -6.793252e-20)
(8.29684 -9.798365 -1.764964e-18)
(9.073809 -9.898329 -2.343422e-18)
(9.856569 -9.938208 -1.855895e-20)
(10.64478 -9.911467 3.169687e-18)
(11.42955 -9.825978 -5.334265e-20)
(12.19966 -9.67744 -4.058202e-18)
(12.94904 -9.460269 0)
(13.67438 -9.176387 4.866851e-18)
(14.37605 -8.836011 5.325803e-18)
(15.0463 -8.447251 5.49491e-18)
(15.68069 -7.99903 -5.821551e-18)
(16.2704 -7.50121 6.210588e-18)
(16.81299 -6.953172 0)
(17.30814 -6.362784 -1.35351e-17)
(17.74746 -5.744456 1.408478e-17)
(18.12303 -5.087606 -1.663386e-19)
(18.42994 -4.398819 -3.593519e-18)
(18.66735 -3.685634 -3.631382e-18)
(18.82695 -2.970719 0)
(18.89315 -2.257442 1.840506e-18)
(18.85387 -1.575777 -1.801567e-18)
(18.68354 -0.9648777 8.683529e-19)
(18.54064 -0.5377305 -2.06698e-19)
(18.63458 -0.2272252 -3.797287e-19)
(19.14749 -0.01732291 1.087914e-20)
(15.98314 -0.3962425 -1.261691e-18)
(5.079096 -0.989152 -4.527855e-21)
(3.972669 0.8435298 0)
(7.142702 2.762726 0)
(8.847919 3.506536 -6.964712e-20)
(9.606154 3.591887 7.250159e-20)
(9.362585 3.51531 0)
(8.171548 3.712928 0)
(6.877776 3.56162 0)
(2.59652 -0.9045184 5.004636e-19)
(-5.047857 -5.663643 -7.769187e-18)
(-6.103307 -4.143065 6.798956e-18)
(-6.164474 -3.506278 -5.954529e-18)
(-5.69937 -3.724875 -1.681672e-19)
(-5.081415 -3.224056 4.154741e-18)
(-3.722595 -2.333571 2.93892e-18)
(-2.143668 -1.196397 2.430389e-20)
(-0.8082384 -0.6221876 -6.669594e-21)
(-0.6068517 -0.999955 -1.948544e-20)
(-1.026523 -1.722898 -1.994147e-20)
(-1.393788 -1.971666 1.408991e-18)
(-1.257062 -1.165491 0)
(-0.5784228 0.1570426 1.517941e-18)
(0.3351187 1.190219 -2.027581e-18)
(0.816643 1.674673 2.414098e-18)
(1.008467 1.739969 0)
(1.267563 1.887903 0)
(0.9016319 1.260789 -3.213212e-20)
(0.1743932 0.8276761 -2.008046e-18)
(-0.1129777 0.2908665 9.555305e-19)
(-0.09784171 -2.14024 -8.849456e-19)
(-0.2484948 -5.164168 0)
(-0.5241388 -6.32753 0)
(-0.6893428 -6.087333 0)
(-0.6683065 -6.178491 -4.437098e-19)
(-0.5036799 -5.860177 -2.06237e-19)
(-0.3492295 -5.267844 -1.626523e-19)
(-0.3890426 -4.374884 4.93467e-20)
(-0.356919 -3.289147 0)
(-0.3608001 -2.099089 -1.006531e-19)
(-0.4897026 -0.8642767 0)
(-0.4749619 0.1931411 -2.07863e-19)
(-0.5670308 0.9594466 0)
(-0.7735875 1.651953 0)
(-0.8972883 2.221673 -3.835118e-19)
(-0.9290023 2.521361 -8.719257e-19)
(-0.8650027 2.543707 8.868113e-19)
(-0.7593224 2.365282 -8.565779e-19)
(-0.7192082 1.92148 8.151212e-19)
(-0.5383835 1.099328 0)
(0.1163894 0.5151325 1.472955e-18)
(1.094468 -0.4861531 7.25957e-19)
(1.414121 -1.269027 7.912357e-19)
(1.304372 -1.63771 -2.468342e-20)
(1.057241 -1.492134 -1.929904e-20)
(0.8620687 -0.9934069 -5.544322e-19)
(1.245332 -0.9154906 1.075766e-18)
(1.433395 -1.431396 5.86966e-19)
(-0.2703168 -0.9542698 2.537277e-20)
(-1.836922 -0.01655958 9.526637e-19)
(-3.052218 1.119665 1.745194e-18)
(-3.944036 1.92819 2.790185e-18)
(-4.374479 2.124771 0)
(-4.706631 2.565784 6.159016e-20)
(-4.286512 2.72267 0)
(-2.951085 4.699583 2.186439e-18)
(3.046519 1.042065 -2.721401e-20)
(7.459829 -2.738947 2.079323e-19)
(9.852873 -3.115216 -1.447522e-20)
(11.20764 -3.088453 2.216247e-20)
(11.73233 -3.273877 -2.165485e-18)
(11.9565 -3.375355 0)
(11.83636 -2.663999 -1.210623e-18)
(11.05372 -0.5217409 -1.643112e-18)
(12.76502 1.61498 1.015733e-18)
(17.11382 1.858403 1.727161e-19)
(16.27554 1.346704 0)
(16.02734 1.549155 4.65609e-19)
(16.1992 1.979695 0)
(16.29384 2.482356 0)
(16.32109 3.071029 2.223863e-18)
(16.25159 3.69574 -3.417446e-20)
(16.10539 4.299832 4.183049e-20)
(15.87509 4.896208 -2.164705e-18)
(15.57235 5.454136 4.373154e-18)
(15.20771 5.98587 -4.176914e-18)
(14.79745 6.496876 -4.021422e-18)
(14.34472 6.951211 1.91738e-19)
(13.83671 7.368955 -1.164103e-19)
(13.28704 7.732159 -1.016515e-19)
(12.69611 8.052831 -2.90633e-18)
(12.07601 8.32011 -2.927912e-18)
(11.42872 8.529317 -7.550601e-20)
(10.7602 8.696198 2.380625e-18)
(10.08554 8.808407 0)
(9.399937 8.851505 1.674432e-18)
(8.698849 8.834514 1.342022e-18)
(7.996789 8.76769 9.60675e-19)
(7.307864 8.647692 6.758691e-19)
(6.630909 8.466783 0)
(5.965732 8.224021 0)
(5.313503 7.931478 -3.658145e-19)
(4.691641 7.574744 0)
(4.086492 7.168279 0)
(3.519444 6.710529 1.383849e-18)
(2.989269 6.207493 -3.230335e-20)
(2.497785 5.66401 -1.141124e-20)
(2.048623 5.080615 -3.587258e-20)
(1.649261 4.457996 2.4689e-18)
(1.300268 3.799273 0)
(1.009338 3.112926 0)
(0.7533022 2.416062 1.535643e-18)
(0.5804653 1.684813 7.652068e-19)
(0.4384298 0.9402897 8.20525e-19)
(0.3571733 0.2200098 -4.214816e-19)
(0.3409756 -0.490055 0)
(0.4398611 -1.234642 -2.772843e-22)
(0.5547928 -2.020449 2.392611e-20)
(0.7216006 -2.79826 7.15238e-19)
(0.9537205 -3.548556 -1.384857e-18)
(1.243469 -4.26819 -3.842203e-20)
(1.590184 -4.957109 1.162332e-18)
(1.987156 -5.610969 3.393661e-20)
(2.444164 -6.229146 1.770073e-18)
(2.934709 -6.818198 -1.604283e-20)
(3.47505 -7.355493 -1.163673e-18)
(4.067333 -7.846759 2.967921e-20)
(4.684709 -8.303166 0)
(5.335166 -8.70274 8.018848e-20)
(6.032356 -9.046047 0)
(6.746728 -9.348993 0)
(7.472077 -9.588329 -1.099848e-18)
(8.217658 -9.75519 2.906881e-18)
(8.976595 -9.866956 6.329496e-20)
(9.737665 -9.922668 -1.213133e-19)
(10.50494 -9.91318 -2.604074e-18)
(11.26802 -9.849567 -2.915342e-18)
(12.01699 -9.7245 3.453668e-18)
(12.74403 -9.535087 -3.719198e-18)
(13.44676 -9.282085 -7.899637e-20)
(14.13069 -8.970067 0)
(14.78281 -8.614582 -4.757e-18)
(15.40127 -8.199476 9.974664e-18)
(15.97599 -7.738704 -5.284616e-18)
(16.50437 -7.229103 0)
(16.98983 -6.674892 9.677863e-20)
(17.42093 -6.091764 -5.644171e-18)
(17.78995 -5.467333 -8.99491e-20)
(18.09289 -4.80685 1.439858e-19)
(18.32769 -4.118653 -9.303828e-20)
(18.48887 -3.421186 0)
(18.56217 -2.71623 -2.93443e-18)
(18.54224 -2.016183 1.402258e-18)
(18.4122 -1.353416 6.854919e-19)
(18.25273 -0.8061364 -1.05455e-20)
(18.02496 -0.3331964 3.120135e-19)
(18.52081 -0.1372016 5.697763e-19)
(19.09829 -0.6610297 0)
(14.1701 -0.5117225 1.418181e-18)
(12.916 2.010436 -1.201661e-19)
(13.51259 4.252489 3.208891e-18)
(13.3612 4.847285 0)
(13.04854 4.682326 0)
(12.38677 4.416129 0)
(10.73081 4.343666 1.665007e-20)
(7.856659 3.382505 4.10569e-19)
(1.949665 -2.310736 -4.84222e-19)
(-3.568386 -5.651133 3.324471e-18)
(-5.090785 -3.618453 -1.14928e-17)
(-5.273243 -2.815649 5.056366e-18)
(-5.290348 -3.426324 0)
(-5.133451 -3.072244 -3.405413e-18)
(-4.069874 -2.366356 -2.34708e-18)
(-2.536923 -1.239391 1.507573e-18)
(-1.043802 -0.7167203 -4.260352e-20)
(-0.5971529 -1.063284 -3.00964e-20)
(-0.9779944 -1.802183 2.937265e-20)
(-1.396698 -1.977081 0)
(-1.402074 -1.07235 -1.170127e-18)
(-0.812217 0.198611 4.457913e-20)
(0.1414095 1.173064 3.286135e-18)
(0.7685654 1.72028 -2.043081e-18)
(1.030086 1.796546 1.287422e-19)
(1.176208 1.633724 -2.044106e-18)
(1.047513 1.431692 0)
(0.3652343 1.026866 -1.642788e-18)
(-0.08912741 -0.6130264 7.755519e-19)
(-0.127011 -3.801892 -4.2806e-20)
(-0.1858361 -5.89474 6.967023e-19)
(-0.4421857 -6.118893 -3.248975e-20)
(-0.6473743 -6.118401 1.158328e-20)
(-0.6317261 -6.167909 3.710367e-19)
(-0.5620221 -5.843767 -2.315852e-21)
(-0.4495833 -5.25039 2.452759e-21)
(-0.5551215 -4.365883 2.138046e-21)
(-0.5523327 -3.288741 5.479019e-20)
(-0.5619779 -2.100888 8.217196e-20)
(-0.6840684 -0.8429837 -6.993615e-20)
(-0.6286459 0.2088367 1.698619e-19)
(-0.7055136 0.9945378 0)
(-0.9124271 1.72329 2.462026e-19)
(-1.002528 2.3164 3.319354e-19)
(-0.9824686 2.622309 7.153476e-19)
(-0.8778673 2.634553 0)
(-0.7211964 2.423781 0)
(-0.634491 2.009087 -6.654916e-19)
(-0.365932 1.095771 -1.943178e-20)
(0.4819567 0.2853508 -5.804636e-19)
(1.354782 -0.5728265 -6.122245e-19)
(1.506133 -1.247096 -6.517807e-19)
(1.316142 -1.648026 6.483672e-19)
(0.9932335 -1.507896 -5.353783e-19)
(0.7641568 -0.9492444 4.411486e-19)
(0.9674604 -0.5885946 -4.295889e-19)
(1.007007 -1.129246 0)
(-0.6684927 -0.9776055 0)
(-1.688369 -0.5159302 -8.054054e-19)
(-2.640519 0.507131 0)
(-3.37375 1.396694 -8.602661e-20)
(-3.729531 1.555695 -2.042239e-20)
(-4.096587 2.225946 -3.52054e-18)
(-3.337501 2.283236 -1.128293e-19)
(-1.68388 4.825766 1.89865e-19)
(3.003016 2.056391 3.45325e-20)
(8.329593 -2.300043 -7.852301e-21)
(11.06972 -3.07893 4.487366e-19)
(12.50615 -3.239982 -2.481402e-20)
(13.38711 -3.561113 9.442411e-19)
(14.51544 -3.809515 -3.318466e-20)
(15.92618 -3.180118 3.93461e-18)
(16.65704 -0.8770554 3.371104e-20)
(16.92282 1.548288 -1.328765e-20)
(17.01891 1.844388 -3.235408e-19)
(15.79679 1.241548 -2.814981e-21)
(16.06746 1.470012 -3.881027e-19)
(16.2184 1.815452 -2.595149e-20)
(16.32959 2.244061 -8.226402e-19)
(16.36093 2.771584 1.735025e-18)
(16.29354 3.368959 -1.755886e-18)
(16.14529 3.96364 3.444973e-18)
(15.91363 4.562141 1.8944e-18)
(15.61381 5.129611 0)
(15.2473 5.68068 0)
(14.83698 6.213146 3.261182e-18)
(14.38445 6.686538 3.111502e-18)
(13.87611 7.12238 0)
(13.32859 7.497216 -8.153032e-20)
(12.7375 7.831568 2.635795e-18)
(12.11457 8.11716 2.332788e-18)
(11.468 8.337606 2.024656e-18)
(10.80505 8.509651 -5.284097e-20)
(10.13236 8.633377 -1.494266e-18)
(9.444238 8.691507 3.65256e-20)
(8.747642 8.679893 -3.686283e-20)
(8.05373 8.616238 -8.094046e-19)
(7.36787 8.504863 5.022379e-19)
(6.687496 8.338247 0)
(6.030338 8.099185 0)
(5.380878 7.815851 6.139424e-19)
(4.767944 7.464226 -8.171903e-21)
(4.167315 7.065519 -7.839164e-21)
(3.615745 6.611246 -1.06709e-18)
(3.094466 6.114367 -2.649708e-18)
(2.59699 5.586948 1.472256e-18)
(2.151042 5.015317 -1.749687e-18)
(1.756526 4.403311 -9.655405e-19)
(1.416111 3.753452 -3.287793e-20)
(1.133656 3.071841 0)
(0.8725681 2.39008 -1.198553e-18)
(0.7147576 1.670166 -4.034805e-20)
(0.5672898 0.9292427 -6.819547e-19)
(0.4825345 0.2145187 3.609812e-19)
(0.4673428 -0.4987767 -2.971528e-23)
(0.582181 -1.23407 -3.489595e-19)
(0.6902452 -2.015072 2.966185e-20)
(0.8513082 -2.782369 -6.236764e-19)
(1.0742 -3.51404 1.135602e-18)
(1.357375 -4.215901 -1.085653e-18)
(1.699487 -4.890751 2.876578e-21)
(2.092354 -5.532055 8.759782e-19)
(2.553754 -6.137909 -1.409808e-18)
(3.035211 -6.720879 1.184201e-18)
(3.564545 -7.2524 8.71909e-19)
(4.157644 -7.735051 8.620082e-21)
(4.782819 -8.179303 9.039793e-21)
(5.426146 -8.571833 -5.876438e-20)
(6.106951 -8.916262 -1.995233e-19)
(6.821147 -9.210929 2.162259e-20)
(7.545759 -9.439815 8.011156e-19)
(8.283524 -9.600331 -2.338774e-18)
(9.034644 -9.708218 1.465043e-18)
(9.800809 -9.746224 -5.95055e-20)
(10.56567 -9.726521 -2.096049e-18)
(11.3214 -9.658583 4.799263e-18)
(12.0708 -9.519676 8.754552e-20)
(12.79524 -9.319215 2.884643e-18)
(13.49871 -9.049297 -3.343795e-18)
(14.18482 -8.719855 1.034422e-19)
(14.83598 -8.350727 -3.757869e-18)
(15.45511 -7.916415 -3.8279e-18)
(16.02917 -7.438816 1.310216e-19)
(16.55916 -6.904837 -4.365074e-18)
(17.04505 -6.328114 4.492062e-18)
(17.47592 -5.725155 0)
(17.84288 -5.082939 0)
(18.14204 -4.408514 2.407887e-18)
(18.37442 -3.721492 2.390964e-18)
(18.5368 -3.02849 0)
(18.60961 -2.344988 1.25567e-18)
(18.58508 -1.6879 1.133357e-18)