/*--------------------------------*- C++ -*----------------------------------*\
| =========                 |                                                 |
| \\      /  F ield         | OpenFOAM: The Open Source CFD Toolbox           |
|  \\    /   O peration     | Version:  2406                                  |
|   \\  /    A nd           | Website:  www.openfoam.com                      |
|    \\/     M anipulation  |                                                 |
\*---------------------------------------------------------------------------*/
FoamFile
{
    version     2.0;
    format      ascii;
    arch        "LSB;label=32;scalar=64";
    class       volScalarField;
    location    "3.78";
    object      p;
}
// * * * * * * * * * * * * * * * * * * * * * * * * * * * * * * * * * * * * * //

dimensions      [0 2 -2 0 0 0 0];

internalField   nonuniform List<scalar> 
15536
(
-37.34898
-46.71142
-55.39474
-61.35045
-63.61378
-61.69306
-55.56383
-46.80152
-47.07939
-51.87309
-44.42293
-34.34105
-33.06482
-37.44383
-43.60643
-52.17593
-64.51288
-78.01202
-87.04771
-84.66987
-69.07147
-45.63225
-29.43775
-23.47953
-30.78377
-47.93242
-60.73251
-66.97911
-72.08174
-89.34037
-129.888
-172.4184
-164.2231
-109.6191
-94.73714
-114.6167
-125.5866
-123.5153
-122.6877
-126.4061
-129.8416
-131.8459
-132.1811
-131.3397
-129.8927
-127.5535
-124.4328
-120.3898
-115.9723
-111.3089
-106.0105
-100.1859
-93.77427
-87.03741
-79.91135
-72.47291
-65.07396
-57.61098
-49.82093
-41.89894
-34.14616
-26.56489
-19.03637
-11.62079
-4.456012
2.562075
9.266261
15.62545
21.53591
27.00631
31.99516
36.50877
40.50752
43.91697
46.71373
49.00213
50.64599
51.68155
52.18851
52.20853
51.42247
49.98192
47.96583
45.36817
42.20616
38.50167
34.32506
29.59346
24.4636
18.99192
13.0303
6.754179
0.2401175
-6.676255
-13.7365
-20.74225
-27.89593
-35.17521
-42.40174
-49.64665
-56.7479
-63.52855
-69.9395
-76.05529
-81.9893
-87.43851
-92.37579
-96.74778
-100.5603
-103.8696
-106.4041
-108.0717
-108.8813
-108.8286
-107.6621
-104.9411
-100.3141
-93.91404
-87.90534
-88.25987
-100.7709
-105.0459
-84.06618
-51.10736
-22.71412
-29.84469
-102.257
-135.5689
-104.3455
-53.95108
-20.91781
-4.491841
7.254076
12.6356
10.89473
7.363934
-1.177261
-10.16664
-15.40436
-15.67353
-12.92956
-10.31398
-7.688896
-8.032925
-9.412437
-8.469121
-5.105684
-1.568295
-2.723105
-4.842255
-5.953176
-7.10808
-8.208313
-10.20968
-13.63914
-19.61883
-28.1678
-37.22846
-46.50501
-55.0896
-60.97103
-63.26537
-61.47948
-55.46557
-46.78639
-47.03258
-51.81421
-44.43033
-34.37529
-33.09212
-37.43436
-43.5793
-52.16693
-64.50806
-77.97489
-86.93624
-84.62313
-69.08743
-45.64166
-29.35681
-23.46397
-30.88128
-48.03613
-60.76698
-66.91957
-71.94888
-89.19181
-129.7999
-172.4539
-164.2646
-109.4959
-94.71272
-114.5536
-125.609
-123.4639
-122.279
-125.5944
-128.6805
-130.4406
-130.6644
-129.7659
-128.2946
-125.9449
-122.8356
-118.8118
-114.4178
-109.7935
-104.5369
-98.76229
-92.40299
-85.72526
-78.66546
-71.29449
-63.96348
-56.57346
-48.86143
-41.01298
-33.33419
-25.82769
-18.37271
-11.02742
-3.928565
3.020474
9.657209
15.95482
21.80873
27.22563
32.1666
36.63784
40.59933
43.97917
46.75063
49.02008
50.65162
51.68055
52.18522
52.20582
51.42596
50.00033
48.00477
45.43299
42.30261
38.63576
34.50169
29.81808
24.74318
19.3268
13.42553
7.21732
0.7696288
-6.081544
-13.06897
-20.00176
-27.08413
-34.2888
-41.44146
-48.61382
-55.64455
-62.35565
-68.70103
-74.75993
-80.64293
-86.04136
-90.93605
-95.26954
-99.05223
-102.3439
-104.8691
-106.5431
-107.373
-107.366
-106.2885
-103.7465
-99.43308
-93.39233
-87.77382
-88.24284
-100.6566
-105.1173
-84.29723
-51.27675
-22.93165
-29.85629
-102.4216
-135.6614
-104.1876
-53.79194
-20.82647
-4.515441
7.1615
12.58038
10.95168
7.424949
-1.18554
-10.18679
-15.40121
-15.68999
-12.95007
-10.32877
-7.676092
-8.008483
-9.415801
-8.487221
-5.10912
-1.572872
-2.729883
-4.843732
-5.955215
-7.106188
-8.205657
-10.21779
-13.65076
-19.61874
-28.12559
-37.16824
-46.40179
-54.96085
-60.84574
-63.17544
-61.40874
-55.63442
-47.10014
-47.25274
-51.99131
-44.54857
-34.41702
-33.08971
-37.39483
-43.54175
-52.18156
-64.55366
-78.03289
-87.01296
-84.76433
-69.42108
-46.01213
-29.41219
-23.38425
-31.04682
-48.16761
-60.84103
-66.9243
-71.91262
-89.19015
-130.0382
-173.1833
-164.9619
-109.6545
-94.57168
-113.8228
-124.3684
-122.6641
-121.6776
-124.6925
-127.5837
-129.3805
-129.6802
-128.802
-127.3678
-125.0455
-121.9706
-117.965
-113.5851
-108.9937
-103.7541
-98.00987
-91.67727
-85.03582
-78.01811
-70.66517
-63.36538
-56.02061
-48.33689
-40.52096
-32.87659
-25.41156
-17.99619
-10.68223
-3.627121
3.291602
9.89298
16.15784
21.9804
27.36828
32.27983
36.7245
40.66216
44.02377
46.77455
49.03038
50.65234
51.67472
52.17664
52.19689
51.42256
50.00984
48.02975
45.47634
42.36794
38.72558
34.61972
29.96083
24.91761
19.53474
13.66222
7.489776
1.07958
-5.739828
-12.69038
-19.58054
-26.62927
-33.80093
-40.91108
-48.0603
-55.05739
-61.7405
-68.05966
-74.07771
-79.93054
-85.29726
-90.17141
-94.48368
-98.24507
-101.5221
-104.0249
-105.669
-106.4681
-106.4346
-105.2909
-102.6961
-98.49336
-92.81289
-87.64391
-88.33483
-100.7318
-105.1147
-84.11054
-51.24182
-22.67372
-29.79133
-103.9759
-136.7822
-104.5231
-53.81882
-20.74321
-4.570166
6.984673
12.43637
10.92559
7.392331
-1.324837
-10.26363
-15.4672
-15.74628
-13.00421
-10.3819
-7.702639
-8.045442
-9.487847
-8.540431
-5.049743
-1.519676
-2.712581
-4.84679
-5.980627
-7.120708
-8.214568
-10.2452
-13.68573
-19.64457
-28.12542
-37.13581
-46.31048
-54.79292
-60.56004
-62.82316
-61.30172
-55.93177
-47.89494
-47.78038
-52.0769
-44.59728
-34.39823
-33.0473
-37.3142
-43.48419
-52.21712
-64.68011
-78.2145
-87.2575
-85.07182
-70.0312
-46.8568
-29.60353
-23.02165
-31.06037
-48.14364
-60.77616
-66.86687
-71.92314
-89.29084
-130.3791
-173.7963
-165.8409
-110.8613
-94.90186
-112.6769
-122.1455
-121.1765
-120.7317
-123.4128
-125.975
-127.5384
-127.6786
-126.7288
-125.3036
-122.99
-119.9708
-115.9982
-111.6568
-107.1336
-101.9736
-96.31429
-90.06193
-83.50254
-76.57703
-69.31558
-62.1005
-54.85192
-47.27577
-39.54305
-31.98357
-24.61054
-17.2851
-10.04892
-3.080051
3.764299
10.29217
16.49453
22.25402
27.5837
32.44394
36.84498
40.74447
44.07817
46.79834
49.03641
50.64664
51.66128
52.16004
52.1785
51.40897
50.0142
48.05579
45.52858
42.45332
38.85081
34.79355
30.17996
25.19888
19.87853
14.06622
7.973908
1.638951
-5.113881
-11.97051
-18.77173
-25.74135
-32.81896
-39.83656
-46.89759
-53.80433
-60.38908
-66.61082
-72.55511
-78.33471
-83.61474
-88.41752
-92.65339
-96.36621
-99.60656
-102.0675
-103.6856
-104.4897
-104.5067
-103.5129
-101.1039
-97.17043
-91.97325
-87.41794
-88.18869
-99.33671
-102.7581
-82.72779
-50.76978
-22.03404
-29.97889
-106.6833
-138.6459
-105.3254
-54.01434
-20.65671
-4.596009
6.805146
12.33285
10.98383
7.219229
-1.581569
-10.40829
-15.58954
-15.86632
-13.10054
-10.48003
-7.776008
-8.114717
-9.605242
-8.637609
-4.940515
-1.385278
-2.664207
-4.839155
-6.031401
-7.157046
-8.241957
-10.3024
-13.7583
-19.70987
-28.17059
-37.15454
-46.27862
-54.69468
-60.36509
-62.73059
-61.30106
-56.32168
-48.9748
-48.35622
-51.50189
-44.18015
-34.28116
-32.94533
-37.18991
-43.39496
-52.28002
-64.93792
-78.5979
-87.7858
-85.6677
-70.89976
-48.10503
-29.80639
-22.28597
-30.71504
-47.73254
-60.36193
-66.70766
-72.10407
-89.53328
-130.6878
-174.0353
-166.1813
-113.1598
-96.6835
-111.9299
-119.8874
-119.5552
-119.6139
-122.0828
-124.4433
-125.9901
-126.254
-125.2674
-123.8684
-121.5163
-118.5292
-114.5639
-110.1942
-105.7407
-100.5837
-94.97146
-88.73896
-82.23377
-75.37925
-68.14516
-60.98508
-53.82699
-46.31879
-38.63612
-31.1438
-23.85814
-16.6091
-9.429352
-2.544663
4.240309
10.70013
16.84013
22.53226
27.80854
32.61704
36.97216
40.82523
44.12771
46.81412
49.03154
50.62923
51.63511
52.1299
52.14348
51.37722
50.00825
48.07871
45.58164
42.54239
38.98032
34.97391
30.40401
25.49178
20.23048
14.46417
8.457981
2.198586
-4.515337
-11.28992
-18.00393
-24.91655
-31.9289
-38.85958
-45.87293
-52.72285
-59.24846
-65.41796
-71.30668
-77.06023
-82.28924
-87.07765
-91.28977
-94.9851
-98.25944
-100.6837
-102.3057
-103.111
-103.1216
-102.0422
-99.64502
-95.88269
-91.06529
-87.05247
-87.56283
-96.15377
-98.05548
-79.88507
-50.42672
-22.09609
-31.68294
-109.8238
-141.0569
-106.5916
-54.37766
-20.63418
-4.481622
6.747445
12.47137
11.31252
7.030131
-1.969552
-10.66833
-15.84847
-16.09382
-13.25415
-10.65169
-7.906074
-8.222544
-9.751972
-8.773052
-4.873692
-1.231232
-2.595143
-4.834838
-6.111353
-7.225521
-8.294639
-10.40025
-13.89378
-19.84718
-28.28911
-37.24676
-46.32377
-54.6945
-60.24317
-62.60592
-61.36657
-56.76458
-50.11981
-48.66741
-49.93593
-42.95713
-33.98846
-32.78655
-36.99098
-43.24879
-52.39662
-65.3679
-79.25395
-88.73456
-86.69541
-72.08987
-49.72219
-30.08514
-21.33584
-29.97364
-46.64972
-59.45165
-66.39922
-72.54518
-89.76252
-129.6144
-171.4046
-164.2254
-115.4115
-99.57203
-111.3937
-117.6278
-117.7581
-118.0849
-120.2463
-122.2611
-123.5848
-123.6474
-122.481
-121.1284
-118.8986
-116.0426
-112.1258
-107.7906
-103.4975
-98.42439
-92.94466
-86.80543
-80.39355
-73.65317
-66.50349
-59.46282
-52.44154
-45.03112
-37.43839
-30.06519
-22.88976
-15.74626
-8.6469
-1.882669
4.825676
11.1885
17.23221
22.85019
28.07356
32.81703
37.11248
40.9007
44.17463
46.81936
49.00716
50.59402
51.58894
52.07772
52.08356
51.32447
49.9827
48.09157
45.63319
42.63819
39.12668
35.17621
30.65111
25.83795
20.65921
14.93071
9.027618
2.901397
-3.754675
-10.43263
-17.01341
-23.8239
-30.74758
-37.56195
-44.47277
-51.21734
-57.63572
-63.68203
-69.46954
-75.1532
-80.25471
-84.96294
-89.06293
-92.66847
-95.8552
-98.20425
-99.72536
-100.4962
-100.6245
-99.7324
-97.53129
-94.09609
-89.76403
-86.31868
-86.5034
-92.61178
-93.20452
-77.15743
-51.0474
-24.28646
-35.94743
-112.7973
-143.4035
-108.0317
-54.91257
-20.58131
-4.230899
6.991154
13.04639
12.03933
6.911922
-2.475829
-11.1127
-16.31697
-16.48453
-13.47007
-10.94576
-8.070495
-8.352385
-9.875427
-8.881931
-4.922122
-1.1913
-2.567977
-4.873737
-6.230908
-7.330835
-8.383367
-10.55968
-14.109
-20.1066
-28.53369
-37.46617
-46.47193
-54.76715
-60.206
-62.65792
-61.60148
-57.31
-51.26234
-48.76431
-47.88733
-41.14677
-33.49995
-32.5996
-36.67697
-43.03326
-52.59202
-65.97729
-80.22407
-90.26507
-88.33248
-73.71565
-51.75748
-30.81733
-20.70374
-29.26441
-45.30302
-58.1968
-66.05306
-73.26687
-89.55361
-125.5173
-162.3664
-156.9639
-116.0781
-102.1488
-110.5388
-115.3066
-115.8483
-116.4041
-118.3595
-120.1152
-121.3551
-121.5585
-120.3198
-119.118
-116.57
-113.7689
-109.8621
-105.4713
-101.3071
-96.23113
-90.8882
-84.77727
-78.38961
-71.7977
-64.78423
-57.81538
-50.86217
-43.60493
-36.1569
-28.87104
-21.74594
-14.7938
-7.769297
-1.151476
5.481313
11.70814
17.65739
23.26733
28.37692
33.02116
37.23385
40.96165
44.25942
46.81208
48.96274
50.53884
51.51578
51.99781
52.00258
51.25741
49.90971
48.05177
45.64428
42.70893
39.2842
35.40935
30.90733
26.20028
21.15614
15.50976
9.650026
3.629411
-2.863421
-9.458372
-15.94239
-22.62743
-29.37812
-36.15189
-42.98304
-49.56042
-55.91232
-61.82069
-67.51695
-73.17479
-78.15577
-82.84837
-86.8569
-90.46147
-93.72715
-96.03199
-97.6395
-98.54214
-98.57806
-97.64207
-95.50901
-92.32012
-88.38492
-85.40049
-85.23525
-89.26916
-88.70822
-74.49489
-52.37664
-28.84654
-42.19798
-115.3712
-144.3507
-109.2462
-55.52103
-20.6226
-3.903307
7.605403
14.07848
13.13914
6.854996
-3.146308
-11.84367
-17.08416
-17.10077
-13.782
-11.358
-8.275587
-8.558962
-10.01706
-8.921689
-5.072829
-1.377019
-2.679251
-4.994161
-6.403947
-7.499836
-8.558555
-10.83725
-14.39564
-20.49658
-28.97465
-37.96508
-46.92152
-54.94175
-60.23217
-62.94486
-62.04647
-58.03662
-52.40589
-48.97447
-46.0635
-39.34941
-32.81465
-32.32683
-36.14706
-42.6307
-52.65735
-66.93081
-81.88001
-92.71389
-90.91836
-75.97994
-54.46894
-32.63011
-21.0417
-29.3064
-44.0221
-56.95789
-65.50596
-73.54389
-88.48171
-118.5513
-147.2648
-145.2979
-114.9389
-103.605
-109.1258
-112.7839
-113.5136
-114.0354
-115.7415
-117.1451
-118.0906
-118.4029
-116.6646
-115.4884
-113.2963
-110.6151
-106.9966
-102.3005
-98.38225
-93.46545
-88.33169
-82.18325
-75.89175
-69.70927
-62.87994
-55.63579
-48.88494
-42.06806
-34.79888
-27.31434
-20.33266
-13.82055
-6.762113
-0.3779872
6.226139
12.19362
18.24901
23.85506
28.67819
33.19202
37.29336
41.01777
44.36261
46.74384
48.9095
50.45399
51.40669
51.89446
51.90704
51.1348
49.79235
47.93938
45.59242
42.72335
39.40071
35.7076
31.19272
26.56492
21.68541
16.33693
10.53252
4.28017
-1.916831
-8.164652
-14.77803
-21.38546
-27.69299
-34.31423
-41.42716
-47.55066
-53.90805
-59.63927
-65.15492
-70.80996
-75.53612
-80.26764
-84.02215
-87.49623
-90.79707
-92.93591
-94.39685
-95.01233
-95.40142
-94.66581
-92.72091
-89.90465
-86.40396
-83.9552
-83.57276
-85.84122
-84.22403
-71.6045
-54.09579
-35.13286
-48.85053
-115.8293
-142.2492
-108.1042
-55.24269
-20.76089
-3.670126
7.869276
15.03182
14.36511
6.851479
-4.059876
-12.96638
-18.31111
-18.14819
-14.50339
-11.62481
-8.76231
-8.985938
-10.26073
-8.770525
-5.246612
-1.818407
-3.00856
-5.249587
-6.662262
-7.799356
-8.911518
-11.31019
-14.83832
-20.88229
-29.62018
3.050614
2.384773
-47.24029
-14.17921
9.361575
-10.41135
1.653681
-0.09641531
6.274119
1.140228
-2.891703
-0.5681612
1.975046
1.765258
2.165132
1.679191
-1.768535
0.2487552
0.523814
-0.6765514
-24.39138
2.44482
1.025811
1.045788
1.972793
1.703868
-2.777449
1.286895
-2.58083
1.590744
1.089405
-32.7497
1.382402
2.196979
0.9147055
-0.8685395
-20.27433
0.3696178
-0.8742314
-1.578394
-13.7779
2.80163
2.383125
5.069188
29.01435
1.789258
0.7771282
0.1463735
-22.4128
1.355207
-7.126981
-4.998473
-24.81508
0.5867707
0.187172
17.52456
1.746636
0.9391188
-6.745591
-9.621329
1.35183
0.01198225
-8.497026
1.1102
-3.73857
1.676035
-42.9323
1.5671
2.061292
2.378982
1.781588
0.2840528
-1.953637
-20.11469
22.70661
1.116466
4.437565
0.6903548
2.055871
0.7131374
-9.895974
0.207301
2.701458
0.8154836
-4.229324
2.626665
1.4717
-0.959579
2.366145
-14.5548
-9.6173
25.47747
-24.33649
0.5696241
2.569998
-0.3434451
-24.91562
6.839665
-74.07038
2.769929
0.3049566
-0.7976511
0.9902008
-68.7832
0.8650757
-26.53486
0.4475729
2.196378
-8.709703
-12.40225
-1.040277
3.625782
5.447389
7.930438
-31.11818
-0.2416155
0.2684852
1.846729
24.59675
1.993506
2.840273
0.4310707
1.720939
2.532277
2.923148
-4.622761
2.463537
-56.42671
2.669741
1.636393
0.258059
-9.351331
0.8135224
2.494657
-1.824178
-4.390593
0.1666356
2.422558
0.5156963
0.3197494
-55.71883
2.218262
-49.47803
2.438422
-0.7745644
1.386031
-1.200868
-34.0179
1.236209
1.850124
1.814769
-28.27478
-36.98444
2.423295
-10.33342
-80.17808
1.614916
0.7468463
0.7262101
-13.5952
0.9592507
-8.56123
-11.77929
-2.529126
1.91398
-5.311343
-13.69796
2.566463
-43.76326
4.154191
1.965226
-13.48964
3.839166
-61.7543
-2.684175
-25.72936
1.170562
2.316103
-72.70297
-5.23002
14.3234
-1.01319
1.963467
1.83402
5.92687
-34.27536
0.282662
1.004766
-21.12447
0.8094215
1.989496
0.2351567
-2.479389
0.8112103
-1.071516
2.349318
2.540947
2.346613
1.136736
-22.8147
-1.074016
-16.61366
2.671826
-27.84684
0.9077287
-0.7181557
-2.598235
2.202648
-3.935581
-1.730173
1.199601
-1.50541
-8.792212
-4.304675
1.031436
-13.80071
-5.856504
-0.5688125
10.87973
0.5846769
2.105492
-9.558836
2.297623
-16.7917
0.04398108
-2.818229
1.625825
8.328792
-0.7685739
15.79639
-6.584527
-67.28779
0.2899233
3.457236
-53.98558
1.612317
21.96004
-2.816682
2.97573
2.332234
2.418439
0.7962936
4.177625
-17.32107
0.3166379
-6.858878
1.770626
-58.19764
0.3580494
2.592425
-20.22928
2.396579
-1.602798
-0.532726
2.780379
-15.16602
2.73376
0.3928765
-14.61127
-1.424778
-10.98506
0.182196
-25.10317
-7.654066
1.771602
1.409577
2.42413
1.193532
-2.470715
-16.80499
0.582933
0.7822035
12.21699
1.802472
-1.280817
2.693168
0.6854717
-41.1153
-83.55513
1.965986
1.641851
2.38735
1.989923
1.460261
1.701775
1.051619
38.851
2.018683
1.12271
2.811576
-0.988494
2.960971
2.268069
1.607758
-50.60757
0.3286
-10.72723
-0.3271529
1.347361
2.17321
-30.05608
2.340822
-5.418627
-38.04707
2.014908
1.187773
2.724871
1.784029
1.904907
-1.78248
4.374087
-2.642921
2.070194
1.084009
1.86815
-6.429706
34.17198
-34.86245
-60.18701
-87.34461
1.859206
-3.658752
-2.296458
-2.314278
0.1207449
-3.829653
1.67413
0.3139573
1.77074
-2.120741
19.4796
0.2922753
-2.971451
-70.29685
1.953175
0.7625256
2.186567
0.01448347
1.102571
-1.109612
-61.58013
5.346444
2.788449
-0.9758715
-7.152852
5.652862
-6.065562
1.945137
-5.442084
0.1557985
-2.440211
-0.3970427
11.78717
0.706098
2.87907
-85.99799
-40.89427
1.164928
0.8783192
1.742487
0.6381768
-8.720631
-2.405971
1.922167
-0.4211908
1.123455
0.3611606
1.441572
0.7195795
0.3319281
0.4588456
10.89942
-26.51053
1.773594
1.264902
2.457177
0.9146056
2.296759
1.820353
-0.4368331
1.589464
0.6704617
1.416618
-20.58743
1.921437
1.572711
0.5537386
40.7288
2.035454
2.24329
-18.61172
2.149912
3.688527
-72.14797
2.550331
1.538499
2.70412
-2.413418
1.511024
1.780897
1.521124
-0.815046
-18.59371
-2.881015
1.942194
-0.8894696
-50.21174
-40.44303
0.4257605
1.395796
0.8242861
0.4215756
3.374556
-0.152461
1.254039
1.645444
4.095161
-9.142874
0.6576194
-12.15927
-0.5070351
1.183049
2.624951
1.989131
1.944501
-16.42853
0.7410067
-0.4362076
-6.209666
-5.1442
-11.74226
-0.1306955
-0.7087552
0.9174876
2.221861
1.93467
2.118137
-1.631768
1.069541
-0.6715435
2.74385
3.091583
3.528582
1.706364
-0.5190296
1.236329
-0.4355625
-4.989201
-5.068275
1.806571
-0.1154069
-85.79884
1.380382
-16.15646
1.870004
1.654762
-1.668606
4.083152
1.15346
-12.63274
2.580883
-49.88039
-1.90132
1.970415
0.9863239
2.160088
28.95616
1.715072
2.016961
1.125595
-5.201125
1.526788
0.9338176
7.106214
-1.422722
-15.76368
-28.50021
-49.65248
2.649884
2.092517
-18.87278
2.173026
1.468319
1.866973
2.638607
1.924948
-4.491495
15.64134
0.3046804
0.1579026
2.328994
-15.74274
-3.682009
-2.353353
-11.5948
0.6484719
1.009258
4.236622
1.935382
3.553964
1.024108
1.917741
0.5545095
-0.9931195
2.935696
1.135743
-0.2532221
-0.1184444
-21.35982
-9.042691
-13.06656
-0.7619487
9.400177
1.18813
1.960952
1.642925
0.2768187
2.25904
3.211667
0.7017421
0.8080024
1.509823
-4.021935
0.7034446
1.551187
2.021352
0.8129902
1.758126
0.5868235
0.7908807
-18.02549
-6.573811
-11.93199
0.3041424
3.893374
4.891391
3.675411
0.4870001
1.535401
0.4539392
5.304655
1.318008
2.454594
3.314513
-73.50743
2.019087
4.415895
1.569833
-0.7366714
9.142525
1.527092
11.18706
-6.035274
-0.2127815
-12.32933
3.510656
-1.212006
3.41426
15.3465
-12.43366
0.6275923
1.662737
1.207941
1.752769
0.3558469
1.19076
0.06318408
2.255916
27.65229
-1.237293
1.088624
0.8063533
2.229884
-49.4131
0.8804412
2.376154
1.855829
1.58089
1.93697
2.591374
1.236144
2.488979
5.326502
0.7387507
-6.616634
-14.75111
0.5899378
1.01658
-61.98444
-0.1923902
1.799974
-32.82196
1.804728
0.3026909
1.155264
0.5191807
0.7233524
-75.44712
1.177311
1.322855
1.15422
2.06557
0.4776078
1.245202
3.814302
-28.19189
-14.08216
1.976323
-30.30462
-2.468629
5.578326
2.102939
-32.85705
1.119296
7.927803
-7.339386
1.725588
-4.381898
-4.689269
2.691153
7.089546
0.8710736
0.3054218
-4.897367
1.786627
17.56792
2.954945
1.68497
2.059652
0.5720781
4.773848
-9.865037
-8.011791
-21.52345
-17.96777
-3.10053
-7.47587
-0.2029406
1.805528
1.44672
1.104723
-4.234208
0.7875597
-9.271544
2.456285
2.757899
1.562115
-22.73648
1.192952
25.07421
3.294808
-40.80915
-22.79028
2.48803
7.229721
0.4118944
-37.13892
0.9044957
-0.1607573
-29.36185
-1.576814
-1.7659
2.22613
2.568816
2.721649
0.1166884
-19.99992
0.1144974
3.105244
-6.407046
1.029588
0.8583464
-61.92297
-0.8088211
0.8282884
-0.4467278
0.9154252
-4.033581
2.091414
10.26569
15.00199
14.8546
2.200264
-20.57613
1.332287
-6.725771
1.833313
0.7079795
2.540864
1.629603
-30.09463
-0.4652921
-17.21295
3.160036
2.10943
1.036156
-16.84293
2.819249
-0.2858838
-1.882493
-3.741925
-3.899226
-6.804562
-7.313652
4.888851
-7.957775
0.5130867
0.9531344
-30.58665
-6.392319
2.588462
2.251722
2.801964
0.5074929
-7.870729
1.954381
0.001310028
-20.66624
2.065045
-4.934271
2.600845
0.5027632
1.820612
0.9941981
2.34797
-0.3494525
1.959578
-18.21713
1.244444
1.017722
-0.6902162
-0.2343883
1.001852
1.81409
2.118422
3.566787
0.1250834
2.374779
-32.17392
-0.9038037
1.563303
0.3126129
0.8202131
1.755533
6.025034
2.201419
-40.55332
1.810988
-1.959485
5.074432
-4.022432
-22.8512
-4.657408
-17.93063
0.4877464
-110.2498
-2.493914
-15.32131
-24.43359
-1.028165
-0.5163593
-2.38281
1.008748
14.71632
3.291931
2.135002
-21.55229
2.46227
0.5330672
0.8538648
-3.670046
21.85512
-9.533787
0.9988587
1.386432
-0.9229803
1.735176
0.6105368
-4.523275
1.585529
-0.3498159
1.693958
1.129127
-5.471425
8.157531
0.06821057
0.7945485
0.6804627
2.104501
1.747492
1.562447
-1.45269
30.65255
-0.02072689
0.6413591
2.298108
1.787842
0.6096551
1.48378
-56.11107
2.056714
-27.32197
-11.38874
1.933085
-4.837668
0.7677257
-11.4371
2.274429
0.6268838
0.8510144
1.2008
-13.37885
-66.35431
1.593163
1.47822
-2.661092
1.517632
1.500623
1.08109
-32.91003
-0.1675541
12.96415
0.8158457
1.936871
1.909835
1.758339
2.974779
-1.835498
3.685944
-0.9586641
-12.58622
2.023658
8.979084
-13.6093
1.987068
-1.812661
-18.12528
2.228036
1.829945
1.516555
-2.680704
-2.166583
2.12373
1.600706
0.6613684
0.5955127
3.266392
1.946551
-2.216933
32.961
1.736913
0.6051783
-6.525205
-85.49879
-0.6416329
1.102385
2.867592
0.2795483
34.53648
1.931395
1.786459
0.1326264
2.303726
-18.09189
0.7348911
0.8325415
0.9266658
-31.00161
-8.946508
0.8397437
-3.946403
-109.7373
0.4773416
0.7287532
0.9028037
-6.685535
4.642997
32.34747
-5.286504
0.3543941
1.757549
-2.74979
-5.429899
7.038687
1.132303
0.9162745
-0.05770869
1.75767
-0.04718723
0.9731207
2.450868
-11.12352
-17.71481
-36.34505
2.375974
6.376456
0.6032907
-0.04054273
2.650769
-0.9347954
-15.34949
1.922958
1.942769
12.76387
-9.792017
3.643006
2.660485
2.248289
-15.86277
24.6521
-6.924238
1.545798
-5.04282
-20.26667
2.151516
0.4574174
0.7275417
2.507511
2.039082
-43.15318
-6.410579
2.70003
-9.994363
-3.141429
0.2160207
-38.06301
-28.97659
-59.09703
2.146695
-31.25843
3.943594
2.076028
-24.67931
2.060775
1.404847
-18.54903
0.1771084
0.7911884
1.932146
3.683641
0.4948658
-37.22476
-12.65152
3.390232
13.96661
2.388879
0.303655
-31.56727
21.59133
-33.331
0.1913471
2.227577
2.409543
-18.3874
-7.038051
-4.300163
0.08150851
1.919248
-1.584691
-43.34718
-51.41026
2.130219
2.148008
2.242191
0.5607531
0.04146638
2.71323
0.8843341
0.5999713
0.6883956
0.5778505
0.4479787
-2.451466
0.9801141
-9.106979
2.622981
2.721401
-7.334133
2.538533
1.808894
-3.726081
-17.86594
6.548247
0.3518209
2.834532
-18.24555
-49.838
32.69246
47.28078
3.438545
0.04178882
-4.125969
4.83789
2.493822
0.2943201
12.94226
-23.10042
2.84761
1.785978
1.580029
2.34833
1.904792
0.1248787
2.521398
-30.14946
-48.46769
0.9967703
1.072883
1.752736
2.81761
1.290242
-8.197103
0.8586917
1.021573
2.446332
-1.901482
1.571725
1.353041
-51.1646
-32.51083
2.521705
1.726227
2.761592
3.123554
-7.46891
2.605558
0.3099984
-11.34817
2.346036
-38.89602
-4.608382
2.168616
1.765641
-26.04114
-40.70655
-1.370296
0.7105074
1.756069
0.6834502
-2.522054
-8.727868
0.883193
1.798833
1.800904
1.441667
0.9976593
1.060844
2.074774
2.392507
-0.4805369
0.5799442
0.4985111
-1.57937
-1.920506
0.6289018
0.3169851
-1.629883
-0.4636895
1.147436
3.128908
0.0282832
0.2190222
5.853676
0.1759608
-6.639575
-42.76919
-28.29806
2.469377
1.77783
0.2885873
1.91539
-19.98176
-6.151503
-25.388
-23.31313
24.22245
2.223524
4.230493
-8.630754
-13.49471
0.2717486
3.676633
-20.82413
-2.626894
2.713233
-23.14602
2.294793
3.42579
-0.7691636
1.09924
-20.19614
2.441037
-64.64372
0.7841654
-5.030447
37.63979
-6.850314
-2.601529
1.041608
1.337479
1.864527
8.174831
1.902203
8.438303
-1.931312
0.1179983
-12.36168
-0.07381479
0.4584459
0.8649154
-25.80623
0.6775536
-40.65991
7.735021
2.160367
11.71105
1.865267
31.82456
-0.9084701
-2.390205
2.311711
-1.338564
16.63592
-13.41945
-80.0859
1.963149
0.9220871
1.892066
2.002654
-1.292516
-14.16189
-2.048585
0.5683046
-43.53485
2.240961
21.55683
-46.83193
3.381052
4.804386
-21.49348
-6.697934
-71.16618
40.03583
3.699008
1.81434
-29.06702
1.361479
0.2352529
-2.622406
2.204959
-25.43562
-57.83431
-7.657662
2.522839
3.582354
2.598953
0.8194361
2.505721
0.1585115
2.421696
2.158213
1.335831
0.8632701
0.9061088
-7.617149
-24.17673
2.417635
0.3670958
0.4392991
-53.85599
0.0861038
2.270347
0.6917491
2.7362
-49.06119
2.550384
0.14894
0.9184295
0.9500376
2.429224
-8.035013
0.7339838
1.553907
-34.03557
28.69916
0.8598961
0.7868548
2.545103
1.087515
2.46636
2.156299
0.5454887
2.206566
2.571969
-6.817837
0.5240805
-9.579774
1.563322
-3.433747
3.795584
2.864497
1.612744
2.4106
-26.23385
-17.98127
-52.97771
-16.61608
0.7785827
1.019295
1.819856
-2.949855
2.305331
-37.11008
0.1618628
1.826873
1.354543
-12.68005
0.7161823
-3.399798
3.586918
-69.78724
1.823803
-0.4580118
1.955388
-80.38956
2.109404
-25.77838
1.835709
2.015879
1.768942
1.881369
1.831617
-25.13301
-7.563387
0.6048099
0.7451662
-6.839519
2.66558
2.070887
2.336853
3.914577
-2.013861
1.784659
0.7305814
-88.70689
-5.39267
-22.32248
2.345239
2.962397
1.497068
2.1969
1.956294
2.370112
-14.70085
2.293162
2.704376
12.25823
2.677549
-7.193907
1.825054
2.209217
1.110129
-31.79517
-0.2710491
-1.682604
0.1179456
-11.30565
6.079375
-12.56922
1.917837
-26.16764
0.354328
-5.387847
0.03769187
-0.706068
16.72193
2.222186
2.753325
-63.59964
0.4476116
-0.3065751
1.209854
0.3522498
-0.8815965
-0.550269
-11.38502
-9.397652
0.9339475
-9.446313
2.082589
1.915716
1.590189
3.342239
1.442598
2.38427
-23.13661
1.805791
2.64668
-11.31818
-1.102918
1.277263
-1.043539
3.007358
4.312786
0.445504
-4.23511
1.842055
2.299426
-5.038567
-12.98166
-8.388292
3.16734
5.205343
1.632385
10.08063
-43.48031
-23.13884
2.144966
1.87191
16.34535
1.211964
0.9667451
1.253729
-3.339686
2.518938
-58.06726
-21.78048
-12.50859
14.80446
11.14484
2.503178
-32.07659
-36.39485
-56.6729
2.462595
-6.522592
-1.679731
2.424311
0.609064
2.650298
0.8251969
3.081509
1.187702
1.652018
1.262055
0.7593552
-19.59597
0.9124027
-0.5194891
1.908493
-9.735747
20.20259
0.2916835
-12.10021
-27.61986
-15.32676
11.45268
1.50912
-10.13423
-7.447443
-48.66237
0.8397352
-40.14199
2.407704
-58.83654
-27.05065
-8.689437
1.99678
-12.95983
1.279575
14.89963
0.5478361
0.6183523
2.167981
1.387868
2.490991
1.124284
1.842567
0.05639171
2.666109
-23.02505
0.4908952
2.302465
-4.968545
1.334464
1.300827
-11.15534
-9.446308
-49.83163
-1.336696
0.7243666
26.24669
2.785391
2.379531
-38.16915
-2.178891
-37.69709
-6.026696
0.6043936
1.782324
1.794799
-2.312365
-5.221055
2.303267
4.684259
0.5253162
1.916937
2.207226
18.27668
3.900747
-22.14457
8.773039
-19.50741
1.7963
-67.3611
1.83749
1.163044
2.5148
2.217179
-1.710655
-43.70041
-25.48111
-25.70175
0.1747344
-6.93957
-9.588615
0.7031195
-27.04911
2.882065
2.754831
-36.71146
-27.05781
2.032888
-82.52113
2.204133
-6.78074
0.5340198
-9.720702
10.7264
1.681112
-0.9825735
2.770932
2.529526
1.49724
18.14494
-1.07459
-6.618114
1.631193
-0.4567956
0.4494421
1.504613
-2.41174
1.690019
2.181001
-2.851238
0.2785359
1.372522
-14.18803
1.136019
-1.67703
-2.631023
-0.8909613
0.9306195
0.8498255
-0.579228
0.04342593
2.380388
-59.77915
28.16883
-10.33425
0.9154234
0.6000371
-21.34625
1.542094
0.05891075
-13.53611
0.9900243
1.845623
2.217594
0.2405494
-74.99498
1.607248
21.4216
32.84102
3.031922
-2.285835
1.560945
2.390049
2.520529
2.032362
32.9182
-29.24918
2.484506
-1.425475
1.518421
-16.31739
2.06729
1.264529
2.260667
2.685763
1.938634
-14.68747
2.133828
1.101382
-0.7322863
-7.461705
-7.344936
0.2656714
0.290523
-64.54281
31.29225
-12.48626
1.906328
-13.00341
-6.476563
0.7064726
1.046393
32.80866
1.956524
-3.682506
-20.28589
-0.6884265
0.3581791
-13.05389
2.604377
0.9687674
0.9604571
1.015062
20.28386
-5.956282
1.607999
-4.845947
-0.5617626
-3.313136
21.21293
3.688175
9.788247
-87.0122
-52.92591
0.8463668
0.4113538
-35.43946
1.214785
-24.21028
-5.163125
-1.55112
3.74026
-0.4934736
-23.97954
-8.731676
6.383358
-21.25774
-10.55562
0.5024158
0.8906796
-2.673855
-43.11666
-11.23439
1.964062
3.083365
0.09443514
1.928364
2.868468
1.119461
2.48929
2.404293
-32.32333
-13.35581
0.6120111
0.8463628
-19.97614
0.8806439
1.333606
-5.028384
4.299564
-0.9093059
1.272574
37.23705
2.913531
1.770839
0.4412924
0.8172084
-12.86741
-31.03225
-46.2275
12.74839
2.78732
1.198947
2.272102
2.194978
0.4181561
2.423532
0.9653249
2.570606
2.214311
2.277911
0.540552
-0.6783436
12.57894
9.473795
-3.904139
2.437794
1.130694
1.261825
2.314701
-12.16027
4.768324
-38.33777
-26.73042
1.010074
0.7815211
-60.43549
42.43291
-73.96288
0.9290205
2.829611
4.370882
-4.314429
8.316535
-15.17908
0.4605436
3.782427
1.795561
4.214029
1.834231
-0.7017372
1.994006
-13.66775
-0.7150543
1.055946
1.333333
2.352026
-66.57333
-41.90338
-57.37899
1.312303
14.50096
0.5987607
1.448401
1.530557
2.440248
-30.40311
0.8084666
3.734141
29.03235
1.491516
2.079481
1.734081
24.05999
0.04605337
2.913042
3.463449
-5.826843
0.9187369
1.299511
-87.53226
0.7893809
-56.72918
3.177792
0.6748896
46.26353
-3.373545
1.394191
1.774704
4.402813
0.4574887
2.884555
-27.76866
44.42556
3.889945
-4.178203
46.32359
2.528204
3.368674
2.145862
-13.93265
0.4268995
-1.858531
0.1178716
4.079725
-16.37493
-15.61199
1.798392
1.790739
0.6426339
2.441988
14.38545
-0.2041143
2.050642
1.986016
1.708029
1.931103
1.811923
1.764067
0.8771923
2.690869
0.5212913
-35.99154
-13.29296
-53.0087
-38.35315
-44.09706
1.885592
-4.067936
2.352206
0.8227176
4.145571
-8.391828
-4.923414
27.88082
-13.20386
2.450391
-7.542531
1.690159
-0.7642186
-31.37642
0.1516418
3.049175
-90.65514
3.436143
1.597271
-1.471708
2.899909
1.261161
1.004179
0.7050069
2.472234
0.7686138
1.709158
3.342564
0.5778004
1.939926
-1.578973
-0.0275222
-14.0063
-6.670678
0.5912484
1.097356
0.8373432
-6.034218
-58.79013
2.89912
1.674019
1.866491
0.5510314
7.467251
15.4523
0.6962142
3.982457
3.816859
-0.3492932
-51.3916
-41.29439
1.473765
-15.12461
-8.51256
-1.109493
7.985491
-0.6440095
-7.932252
-0.2565152
-0.657183
-3.840682
-0.3648475
-5.283171
-6.106256
-1.160474
28.72798
0.4300026
-14.31595
0.2672533
-0.2487035
-0.2890178
-63.17641
0.8208097
1.316345
-10.15672
-0.3212268
2.192649
-7.189466
2.226338