/*--------------------------------*- C++ -*----------------------------------*\
| =========                 |                                                 |
| \\      /  F ield         | OpenFOAM: The Open Source CFD Toolbox           |
|  \\    /   O peration     | Version:  2406                                  |
|   \\  /    A nd           | Website:  www.openfoam.com                      |
|    \\/     M anipulation  |                                                 |
\*---------------------------------------------------------------------------*/
FoamFile
{
    version     2.0;
    format      ascii;
    arch        "LSB;label=32;scalar=64";
    class       volVectorField;
    location    "3.78";
    object      U;
}
// * * * * * * * * * * * * * * * * * * * * * * * * * * * * * * * * * * * * * //

dimensions      [0 1 -1 0 0 0 0];

internalField   nonuniform List<vector> 
15536
(
(-0.08352821 5.477874 -4.457105e-22)
(-0.3365237 6.727048 -7.454304e-19)
(-0.6598347 7.708987 -1.742772e-18)
(-1.009081 8.288068 -1.907295e-18)
(-1.283119 8.227122 -3.073312e-20)
(-1.316299 7.199245 2.171021e-20)
(-0.9142247 4.587719 2.622347e-20)
(-0.06100563 0.667058 -2.737937e-20)
(1.06885 -2.659332 6.484283e-18)
(1.912867 -4.318748 6.949617e-18)
(1.902979 -4.199415 0)
(0.9740658 -2.232809 0)
(-0.05071535 -0.1619469 -3.896532e-20)
(-0.9120392 1.402074 1.074639e-17)
(-0.9292281 1.418459 6.152521e-18)
(-1.071709 1.497629 -1.465785e-17)
(-2.029687 2.571568 8.816083e-18)
(-3.120816 3.707407 8.525585e-20)
(-3.904472 4.369402 -1.719989e-19)
(-3.9468 4.224961 8.777244e-20)
(-2.412652 2.60363 0)
(0.7750389 -0.4026811 6.203948e-18)
(3.810443 -2.876968 0)
(3.692141 -2.738511 3.166263e-18)
(0.8960368 -0.7591086 -2.925365e-20)
(-1.640358 0.8757142 -5.908268e-20)
(-3.012468 1.66691 5.8213e-20)
(-3.61773 1.892894 -9.078212e-18)
(-4.25378 1.997692 -9.600115e-18)
(-5.927208 2.438455 0)
(-8.405266 3.114516 -7.103205e-20)
(-10.35269 3.647165 -1.022417e-17)
(-6.676532 2.433221 9.991228e-18)
(1.16499 -0.03395197 0)
(3.297232 -0.8236412 -6.661637e-18)
(-0.3498439 -0.2810654 -3.310295e-20)
(-2.099286 0.01251203 4.575026e-18)
(1.52728 -0.06265358 -2.076734e-18)
(7.76072 0.1230983 1.878967e-21)
(11.47873 0.584604 -4.646313e-19)
(13.37062 1.156415 1.860247e-18)
(14.32502 1.800586 -2.91547e-20)
(14.84565 2.478766 2.890013e-20)
(15.11375 3.151342 0)
(15.21375 3.809548 -7.129637e-18)
(15.17074 4.440629 -7.028896e-18)
(14.98251 5.035765 0)
(14.72289 5.603486 -1.32466e-17)
(14.39775 6.140693 1.284933e-17)
(14.03318 6.651422 1.235308e-17)
(13.61769 7.121116 4.477839e-20)
(13.14548 7.545877 -1.114908e-17)
(12.62414 7.920573 0)
(12.0625 8.247026 0)
(11.46999 8.521668 8.974846e-18)
(10.84423 8.736806 8.228408e-18)
(10.20377 8.903824 5.477738e-20)
(9.554695 9.020712 6.512382e-18)
(8.883633 9.068706 1.146634e-17)
(8.203665 9.056644 4.891575e-18)
(7.522943 8.987736 3.994312e-18)
(6.854687 8.871108 -2.818542e-20)
(6.195536 8.696885 0)
(5.543223 8.458674 1.405285e-18)
(4.911233 8.173238 0)
(4.295671 7.82674 3.417011e-19)
(3.705264 7.425257 -2.82294e-20)
(3.150146 6.979646 -3.028179e-21)
(2.629874 6.487801 9.259322e-21)
(2.148732 5.953915 -3.497027e-18)
(1.712294 5.386323 -1.754791e-20)
(1.321277 4.782525 2.439709e-18)
(0.9772795 4.144306 2.72523e-18)
(0.6855674 3.487053 0)
(0.4456316 2.81466 0)
(0.2606155 2.122688 3.403663e-18)
(0.1279176 1.425393 -2.755141e-22)
(0.05074611 0.7577553 9.365516e-19)
(0.0241199 0.1100075 1.733758e-21)
(0.05153067 -0.6173079 -7.302261e-21)
(0.1274468 -1.391903 -1.811556e-18)
(0.2618647 -2.142575 0)
(0.4525316 -2.861676 3.294627e-18)
(0.6962179 -3.551967 0)
(0.9914119 -4.213886 -2.817217e-18)
(1.335778 -4.84522 2.511325e-18)
(1.728507 -5.444486 1.862988e-20)
(2.166198 -6.010617 3.826771e-18)
(2.645483 -6.533955 1.081927e-20)
(3.162132 -7.012318 -2.42973e-18)
(3.713578 -7.448028 -1.659504e-18)
(4.29712 -7.835157 9.535649e-21)
(4.910609 -8.175488 -2.628028e-20)
(5.544566 -8.464937 -8.102156e-19)
(6.194004 -8.699548 1.61111e-20)
(6.848563 -8.866361 6.562341e-21)
(7.513104 -8.979648 -3.298519e-18)
(8.183333 -9.039641 0)
(8.850541 -9.038634 9.757789e-18)
(9.5169 -8.987171 5.607803e-18)
(10.16288 -8.871419 1.047863e-19)
(10.78488 -8.694181 -7.223567e-18)
(11.37872 -8.458572 0)
(11.94309 -8.168676 0)
(12.4767 -7.832868 0)
(12.97079 -7.449271 0)
(13.41526 -7.019038 1.026774e-17)
(13.80658 -6.546096 1.082055e-17)
(14.14454 -6.035254 3.168211e-20)
(14.42449 -5.495155 -1.156169e-17)
(14.62047 -4.920204 -5.878208e-18)
(14.71005 -4.312727 -6.041705e-18)
(14.65208 -3.67187 4.716428e-20)
(14.41445 -3.004313 6.085591e-18)
(13.95995 -2.324712 3.103183e-18)
(13.19046 -1.655195 -2.386205e-20)
(11.8407 -1.04338 -5.553472e-21)
(9.201113 -0.5053673 3.631128e-19)
(4.40124 -0.1129081 -7.098387e-19)
(-1.578882 -0.1525272 -1.842534e-20)
(-4.948656 -0.8383114 1.225665e-20)
(-6.803805 -1.270109 3.395284e-18)
(-5.768731 -0.9972579 2.395002e-20)
(-2.834121 -0.2498526 0)
(3.865261 1.513214 -1.49277e-18)
(6.160982 1.890259 -1.986902e-18)
(-4.717097 -2.389289 -9.109101e-21)
(-11.28072 -5.134281 1.575185e-17)
(-10.28342 -4.83239 -1.20929e-17)
(-7.589326 -3.816397 0)
(-4.800112 -2.608632 0)
(-2.622698 -1.511335 -6.108117e-19)
(-0.5787952 -0.2248343 0)
(2.235859 1.70609 -1.253061e-20)
(3.482923 2.650822 1.505118e-18)
(1.724867 1.334973 1.020303e-18)
(-0.1965184 -0.3365048 6.303161e-21)
(-0.9054177 -0.9943703 -2.898896e-18)
(-1.04506 -1.166804 -3.159098e-20)
(-0.8593076 -1.002526 4.502282e-18)
(-0.3211809 -0.3573351 1.8602e-18)
(0.4205501 0.6223886 1.476769e-18)
(1.17095 1.796031 1.064564e-18)
(1.791003 2.855396 0)
(1.386039 2.260097 -4.625569e-21)
(0.1266337 0.101981 -1.190024e-18)
(-0.6681748 -1.438121 0)
(-0.3231946 -0.5122502 2.259615e-19)
(0.2855376 0.9835449 -3.333442e-21)
(0.3916647 1.15408 2.118304e-21)
(0.04417941 -0.004158244 4.303335e-19)
(-0.1804308 -1.009574 6.20119e-23)
(-0.2083918 -1.191992 0)
(-0.07426517 -0.3163533 3.644348e-19)
(0.04592657 1.018218 3.308515e-21)
(0.1064993 2.588396 1.605377e-21)
(0.07206282 4.099171 -1.721567e-21)
(-0.3023219 5.595506 -2.510142e-19)
(-0.6078014 6.897467 6.067828e-19)
(-0.9791664 7.953538 0)
(-1.371902 8.593022 1.564135e-18)
(-1.704742 8.876389 0)
(-1.914077 8.870111 6.187352e-18)
(-1.771221 8.044319 1.970659e-20)
(-0.8541494 4.47632 -2.04337e-20)
(1.367579 -2.833978 -5.067404e-18)
(2.070324 -4.832126 -5.667678e-18)
(1.305612 -3.337983 0)
(0.5741461 -1.916871 2.904173e-20)
(-0.1725142 -0.2169913 1.376091e-21)
(-0.4661512 0.6410566 -4.491686e-18)
(-0.155056 0.2288646 -1.052273e-17)
(-0.9919749 1.141493 5.944485e-18)
(-2.297471 2.602113 -6.939101e-18)
(-3.481611 3.843976 -5.937229e-20)
(-4.285079 4.557081 0)
(-4.502645 4.675495 0)
(-3.819445 4.085583 0)
(-0.8428694 1.430404 4.762948e-18)
(4.269194 -3.043781 2.197523e-20)
(4.024003 -3.314155 -2.21309e-20)
(1.096492 -1.298532 3.325003e-20)
(-0.7324648 0.07211361 -3.481518e-20)
(-1.617992 0.7452779 0)
(-1.872622 0.8496039 0)
(-2.066489 0.7466501 1.646784e-17)
(-3.154523 0.8948213 9.190286e-20)
(-5.40714 1.523585 -8.711376e-20)
(-7.059888 2.262283 9.043413e-18)
(-7.803553 2.892417 7.793517e-18)
(-1.411351 0.9584391 -4.075555e-20)
(3.491238 -0.7291027 -5.286478e-18)
(6.349868 -1.083806 3.054868e-18)
(9.181639 -0.6877101 8.510824e-22)
(13.08608 -0.2935179 1.323119e-18)
(17.50995 -0.04735509 0)
(18.7951 0.2898603 3.342424e-19)
(19.02404 0.7962749 2.7718e-18)
(19.0253 1.441326 2.855514e-18)
(18.91192 2.13056 2.862313e-18)
(18.71901 2.826323 -8.841669e-20)
(18.46995 3.529911 5.724501e-18)
(18.17094 4.222269 -4.341718e-20)
(17.83647 4.900579 0)
(17.43546 5.543698 1.055212e-17)
(16.97857 6.156309 0)
(16.4812 6.736151 -7.426365e-20)
(15.93594 7.269997 7.449168e-20)
(15.33918 7.754923 8.896977e-18)
(14.69793 8.184426 -6.248354e-20)
(14.01903 8.558616 7.787703e-18)
(13.31009 8.874136 -7.215855e-18)
(12.5745 9.128206 0)
(11.82275 9.329751 4.334729e-20)
(11.06147 9.474012 -5.339896e-18)
(10.2858 9.54785 -9.139043e-18)
(9.500577 9.553301 0)
(8.718315 9.501024 -3.205386e-18)
(7.947901 9.392235 -1.660772e-20)
(7.189787 9.219326 1.778855e-18)
(6.445039 8.981669 5.720442e-21)
(5.720375 8.685304 -5.7911e-21)
(5.019788 8.326935 -2.7717e-19)
(4.346805 7.91019 9.577626e-19)
(3.712107 7.440516 0)
(3.116805 6.923584 0)
(2.565812 6.362942 -1.93644e-20)
(2.063219 5.760403 0)
(1.612116 5.117795 0)
(1.214275 4.439026 0)
(0.8742902 3.735586 -2.467195e-18)
(0.5909468 3.016447 1.991093e-20)
(0.3738126 2.274751 1.148559e-20)
(0.2133027 1.527508 -5.584293e-21)
(0.117223 0.8061938 -7.691361e-19)
(0.08600578 0.1016585 3.143957e-21)
(0.1290124 -0.6806185 -7.729933e-19)
(0.2207397 -1.508865 1.474948e-18)
(0.381792 -2.312036 1.125405e-20)
(0.6077437 -3.081262 -2.668885e-18)
(0.8937492 -3.820436 -3.928921e-20)
(1.238667 -4.530231 2.33197e-18)
(1.638679 -5.20429 -2.087281e-18)
(2.0944 -5.842205 0)
(2.598278 -6.444121 -6.243193e-18)
(3.148526 -6.995544 -1.783755e-20)
(3.742391 -7.499235 1.968767e-18)
(4.374174 -7.959379 1.35159e-18)
(5.041339 -8.363211 0)
(5.741983 -8.712898 0)
(6.467317 -9.012706 0)
(7.210171 -9.246514 1.250642e-20)
(7.965447 -9.410835 -1.241945e-20)
(8.732363 -9.516215 2.572551e-18)
(9.505597 -9.56109 5.2807e-21)
(10.28098 -9.542059 -3.941217e-18)
(11.05264 -9.463681 -7.556502e-20)
(11.81033 -9.321341 1.028048e-17)
(12.54599 -9.112703 5.724688e-18)
(13.25504 -8.840688 -4.662897e-20)
(13.93983 -8.511596 6.689535e-18)
(14.5956 -8.129898 5.46418e-20)
(15.21386 -7.692116 -6.194069e-20)
(15.78712 -7.203843 6.168691e-20)
(16.31139 -6.667906 6.752822e-20)
(16.78652 -6.090726 8.863145e-18)
(17.20705 -5.476601 -6.969006e-20)
(17.56429 -4.831281 0)
(17.86978 -4.162808 0)
(18.13335 -3.483684 0)
(18.33873 -2.804797 0)
(18.46166 -2.126602 1.795645e-20)
(18.46716 -1.463343 -1.78812e-20)
(18.28118 -0.889587 1.064729e-18)
(17.56447 -0.4753987 4.007242e-21)
(14.77218 -0.2154293 0)
(7.892108 -0.08910025 -1.051308e-18)
(-1.322587 -0.3498598 2.68607e-18)
(-3.14898 -0.3385913 -3.086695e-18)
(0.2878593 0.4055615 3.006711e-20)
(1.078398 0.8049188 -2.791664e-18)
(3.518504 1.534259 1.518376e-20)
(3.966699 0.7077873 0)
(-8.324851 -4.276001 8.949615e-18)
(-10.82536 -4.748884 -2.568443e-17)
(-9.202339 -3.832072 -9.749247e-18)
(-6.610868 -2.838222 -3.193556e-20)
(-4.057962 -1.855321 -4.119612e-20)
(-2.101622 -0.9671592 1.100986e-20)
(-0.5285951 0.1400593 0)
(2.025297 1.945963 -1.347345e-18)
(4.372514 3.424812 -1.202621e-18)
(1.937576 1.271728 -5.200731e-21)
(-0.6064293 -0.8660255 -1.457868e-19)
(-1.110119 -1.20598 2.384932e-18)
(-1.211976 -1.32257 1.8187e-18)
(-1.051725 -1.148178 4.040882e-21)
(-0.5826057 -0.5061638 -1.50181e-18)
(0.1406996 0.4779941 -1.062796e-20)
(0.8366327 1.663699 -8.637558e-19)
(1.718387 3.085663 7.625211e-21)
(2.348486 3.935856 3.979595e-21)
(1.529524 2.417696 -1.138713e-20)
(0.1110495 0.05395556 0)
(-0.1997164 -0.06644743 0)
(0.03751195 0.4203456 -3.247167e-19)
(0.259814 0.5983108 0)
(-0.160854 -1.155419 -6.939629e-19)
(-0.3953801 -2.101994 4.150687e-19)
(-0.352419 -1.573325 -4.219746e-21)
(-0.208774 -0.4285458 4.208041e-21)
(-0.09507857 0.9776072 3.970041e-19)
(-0.04775027 2.605541 -2.792889e-19)
(-0.09946605 4.167935 -1.88369e-19)
(-0.4128669 5.532426 2.001831e-19)
(-0.6639456 6.807406 -4.921835e-19)
(-0.9418274 7.851104 1.907322e-20)
(-1.231973 8.517042 -1.308965e-18)
(-1.487894 8.738319 0)
(-1.646019 8.5291 -5.131136e-18)
(-1.606018 8.264193 -3.207295e-20)
(-1.124275 6.955342 1.870269e-18)
(0.8810846 -0.01199619 3.899068e-18)
(1.588247 -3.56836 4.787154e-18)
(0.4404758 -1.878002 4.113719e-18)
(0.009728712 -1.147682 -2.816517e-20)
(-0.3145205 -0.1344471 0)
(-0.1116258 0.06772365 0)
(0.004210533 -0.1427865 4.228502e-18)
(-1.397672 1.364144 4.795885e-18)
(-2.632093 2.747402 5.656738e-18)
(-3.673264 3.875226 9.634088e-20)
(-4.326086 4.578288 0)
(-4.364632 4.685482 7.416125e-18)
(-3.680963 4.279258 5.783721e-18)
(-1.757332 2.816523 -3.74122e-18)
(3.104816 -1.65924 0)
(3.478175 -3.067495 2.070906e-18)
(1.64154 -1.943991 0)
(1.095403 -1.159311 -4.396097e-18)
(1.049007 -0.7318061 0)
(1.672849 -0.8427284 -6.504919e-18)
(1.88017 -1.030648 -1.344945e-17)
(0.5344287 -0.8114245 0)
(-1.644921 -0.07152162 0)
(-3.139145 1.069606 3.156901e-20)
(-4.384837 2.247291 -6.657908e-18)
(-0.5092326 1.204655 4.318196e-18)
(8.966417 -1.150663 7.539836e-18)
(14.65125 -1.666058 -2.146783e-18)
(16.94536 -1.097415 2.156602e-18)
(18.45763 -0.314389 -1.021414e-18)
(18.98871 0.1807535 0)
(18.546 0.6487086 0)
(18.47377 1.292254 -2.308207e-18)
(18.4479 2.009955 -2.396453e-18)
(18.36468 2.732906 -4.681534e-18)
(18.20999 3.449851 4.621291e-18)
(17.99634 4.155517 1.081564e-19)
(17.72323 4.829531 -7.161085e-20)
(17.38028 5.479493 0)
(16.97333 6.087993 0)
(16.51341 6.667281 8.261224e-18)
(16.0148 7.214809 -7.952191e-18)
(15.4721 7.712738 0)
(14.88025 8.161918 0)
(14.2473 8.554667 1.025666e-19)
(13.57807 8.894361 -6.491565e-18)
(12.88187 9.174913 0)
(12.16233 9.393212 -5.28711e-18)
(11.42748 9.561872 -4.773836e-18)
(10.68601 9.674302 -4.184225e-18)
(9.934007 9.715648 3.677413e-18)
(9.172317 9.691512 -4.45787e-20)
(8.414571 9.613034 2.584565e-18)
(7.66943 9.480597 0)
(6.939133 9.28486 -1.451328e-18)
(6.223648 9.026337 -9.008139e-21)
(5.526751 8.713024 8.900824e-21)
(4.859627 8.336525 -2.882433e-19)
(4.216741 7.906326 0)
(3.611284 7.425808 -1.376699e-18)
(3.043457 6.901047 -1.642749e-20)
(2.520468 6.334423 2.367713e-18)
(2.042958 5.728861 1.417559e-18)
(1.615402 5.08508 -1.630919e-18)
(1.238081 4.407126 -1.830722e-18)
(0.9151189 3.705879 2.006549e-18)
(0.6444776 2.990668 -2.172218e-18)
(0.4408686 2.252476 -1.124953e-18)
(0.2840844 1.509502 2.393581e-18)
(0.1871622 0.791757 1.258057e-18)
(0.1571016 0.08921911 2.562451e-21)
(0.2110433 -0.6860771 6.395103e-19)
(0.2983524 -1.505704 -9.574821e-21)
(0.4512376 -2.30036 0)
(0.6652648 -3.062877 -1.67718e-20)
(0.9347897 -3.797315 -1.461007e-20)
(1.260528 -4.503687 -1.844539e-18)
(1.637073 -5.176278 3.427014e-18)
(2.070597 -5.813471 -1.5201e-18)
(2.547242 -6.418288 2.530855e-18)
(3.067822 -6.975098 1.825216e-20)
(3.633991 -7.485506 0)
(4.235445 -7.95636 1.15344e-18)
(4.87168 -8.373213 5.504965e-21)
(5.543179 -8.737364 -1.140713e-19)
(6.238674 -9.055566 0)
(6.951334 -9.310381 9.857511e-19)
(7.679722 -9.496414 0)
(8.42042 -9.62659 -5.090674e-20)
(9.167508 -9.6992 2.59453e-18)
(9.920674 -9.707925 0)
(10.66971 -9.661331 -3.701015e-18)
(11.40705 -9.552566 -4.212979e-18)
(12.12475 -9.378632 -4.692993e-18)
(12.81797 -9.141762 0)
(13.49078 -8.846698 -1.116898e-17)
(14.13661 -8.50054 8.964139e-20)
(14.74784 -8.097494 0)
(15.31679 -7.644381 0)
(15.8397 -7.142068 0)
(16.31626 -6.597415 7.167266e-18)
(16.73905 -6.02029 -7.401558e-18)
(17.10073 -5.405672 0)
(17.39275 -4.757784 0)
(17.62311 -4.081216 3.825604e-18)
(17.79237 -3.383667 3.039432e-20)
(17.88968 -2.678767 0)
(17.91374 -1.972144 0)
(17.89409 -1.303667 -1.769389e-18)
(17.99572 -0.7784087 2.008717e-19)
(18.15745 -0.4906978 0)
(15.80401 -0.2682426 7.126438e-19)
(9.594304 0.0411632 3.173099e-20)
(7.328654 0.960333 1.992989e-20)
(7.489023 1.865353 -3.076506e-20)
(7.090425 2.142433 2.134428e-18)
(4.37466 1.663242 1.000686e-18)
(0.7012766 -0.9924613 1.589728e-20)
(-7.975329 -4.828462 6.442582e-20)
(-8.20819 -3.859854 1.099953e-17)
(-7.566193 -2.879242 8.170154e-18)
(-5.142902 -1.746249 0)
(-2.755442 -0.869252 1.810794e-18)
(-1.102088 -0.186795 0)
(-0.0655582 0.7184931 1.359354e-20)
(1.592866 1.982107 1.07065e-18)
(3.900838 2.98995 -1.313268e-20)
(1.282281 0.3309367 1.259604e-20)
(-0.5374716 -1.047867 1.160695e-19)
(-1.153541 -1.340973 -9.818282e-19)
(-1.34081 -1.485142 -1.498938e-18)
(-1.275104 -1.349858 -1.525993e-18)
(-0.9381106 -0.7943116 -1.212201e-18)
(-0.2649662 0.09645973 0)
(0.3553122 1.187228 -4.3993e-21)
(1.226876 2.494113 0)
(2.305471 3.865213 -8.595933e-19)
(2.373516 3.707107 7.389758e-19)
(1.114714 1.790358 0)
(0.09282298 0.5437175 0)
(-0.08328165 0.0704194 5.385804e-19)
(0.03503892 -0.5328603 -2.320076e-19)
(-0.3050067 -2.199789 5.580737e-19)
(-0.46865 -2.456081 -2.876873e-21)
(-0.4434728 -1.532021 2.860142e-21)
(-0.337541 -0.4178708 0)
(-0.2450906 0.9854758 -3.187729e-19)
(-0.2065671 2.604272 4.431877e-19)
(-0.237232 4.139242 1.552101e-19)
(-0.5759622 5.49305 -3.266601e-19)
(-0.8126126 6.726164 -1.368971e-20)
(-1.060823 7.737219 1.367455e-20)
(-1.345999 8.377365 -3.366076e-20)
(-1.59552 8.596149 3.417352e-20)
(-1.676655 8.388699 2.12608e-18)
(-1.440879 7.812157 -2.692594e-20)
(-1.007567 7.836008 -1.487841e-18)
(0.2379375 3.661606 4.790572e-20)
(0.6515705 -0.4845265 -3.912848e-18)
(-0.576175 0.1027553 -7.221095e-20)
(-0.6285741 -0.01690637 0)
(-0.4965177 0.165655 0)
(-0.0498076 -0.009980517 -3.102731e-18)
(-0.2481102 0.01474655 -3.487054e-18)
(-1.701374 1.377676 -7.740048e-18)
(-2.830373 2.671752 -4.6055e-18)
(-3.751338 3.734258 0)
(-4.257531 4.421415 0)
(-4.169209 4.562469 -1.230378e-17)
(-3.287359 4.18378 -9.555793e-18)
(-1.752113 3.433371 3.886045e-20)
(1.845554 -0.02763918 -6.81994e-20)
(2.883157 -2.590391 -3.456747e-18)
(2.739718 -2.752908 -2.167813e-18)
(3.522517 -2.586365 3.570764e-18)
(4.317238 -2.426839 4.560065e-18)
(5.200641 -2.548032 4.768544e-18)
(5.236326 -2.684829 5.253513e-18)
(4.145879 -2.5994 0)
(2.465347 -1.92621 -1.650926e-19)
(0.8938956 -0.4922601 -1.380375e-17)
(-0.08754919 1.243986 1.082456e-19)
(3.927939 0.9398844 1.132487e-19)
(14.51348 -1.351615 -2.666049e-18)
(18.21193 -1.891862 -1.561307e-18)
(18.76701 -1.370364 -5.709159e-20)
(18.83239 -0.5506277 -8.321237e-19)
(18.42066 -0.08733528 -4.234627e-19)
(18.37174 0.2743876 -3.508439e-21)
(18.53373 0.8355957 0)
(18.58816 1.49157 -2.993324e-20)
(18.54766 2.184942 1.968754e-18)
(18.41422 2.881832 -7.645146e-18)
(18.21131 3.590161 5.831849e-20)
(17.94263 4.274722 -3.721879e-18)
(17.60543 4.937353 -1.110298e-19)
(17.2044 5.559475 -6.956263e-18)
(16.74798 6.156884 3.728708e-21)
(16.25177 6.72778 6.559411e-18)
(15.71231 7.246056 -6.159227e-18)
(15.12253 7.718296 0)
(14.49082 8.133493 8.302953e-20)
(13.8207 8.498166 -8.357871e-20)
(13.12185 8.804611 0)
(12.39751 9.049727 4.355602e-18)
(11.6566 9.245027 7.4948e-20)
(10.90785 9.383924 3.49794e-18)
(10.14865 9.450328 -2.966217e-18)
(9.381039 9.447804 -2.503575e-18)
(8.61357 9.392562 -2.089865e-18)
(7.859597 9.281709 -1.582077e-18)
(7.120984 9.105733 1.400263e-20)
(6.395894 8.866228 -1.41456e-20)
(5.688812 8.571553 0)
(5.011585 8.212344 2.370456e-19)
(4.358147 7.798464 -1.433107e-20)
(3.743021 7.332636 1.145237e-18)
(3.166043 6.821341 1.538994e-18)
(2.636573 6.266336 -1.930149e-18)
(2.152346 5.671782 -1.163213e-18)
(1.718757 5.038136 -4.491787e-21)
(1.33565 4.369562 1.501337e-18)
(1.009689 3.675978 2.654459e-20)
(0.7347216 2.967947 1.739991e-18)
(0.5313596 2.234084 1.487079e-20)
(0.3720279 1.493472 -9.997405e-19)
(0.2716876 0.7764287 -5.125633e-19)
(0.2425384 0.07111534 -6.39057e-23)
(0.3095793 -0.6958438 5.069361e-19)
(0.3962725 -1.506138 7.836513e-21)
(0.5473186 -2.292336 -9.528272e-19)
(0.7625313 -3.046347 1.808789e-18)
(1.034144 -3.771027 0)
(1.362756 -4.466397 -3.204122e-21)
(1.742307 -5.127273 -1.408954e-18)
(2.181633 -5.752135 1.281362e-18)
(2.662494 -6.345331 -2.174729e-18)
(3.191839 -6.887819 2.462759e-20)
(3.768667 -7.383317 -2.439011e-20)
(4.376318 -7.841111 -9.477929e-19)
(5.022151 -8.241682 0)
(5.707583 -8.586844 8.748072e-20)
(6.41086 -8.88918 1.063452e-20)
(7.132391 -9.125423 -5.479198e-20)
(7.871256 -9.290876 -1.177816e-18)
(8.620824 -9.400701 -1.710333e-18)
(9.376196 -9.451709 -2.38554e-20)
(10.13706 -9.437706 2.502382e-18)
(10.89475 -9.366185 -4.271353e-20)
(11.63836 -9.233093 -3.341266e-18)
(12.36178 -9.03312 0)
(13.06171 -8.767786 4.102512e-18)
(13.7385 -8.446862 4.532736e-18)
(14.38443 -8.078775 4.698219e-18)
(14.99513 -7.65291 -5.001667e-18)
(15.56202 -7.178772 5.354721e-18)
(16.0826 -6.655826 0)
(16.55665 -6.091445 -1.17236e-17)
(16.97589 -5.500261 1.220849e-17)
(17.33285 -4.87222 -1.441219e-19)
(17.62289 -4.213256 -3.108979e-18)
(17.84505 -3.531703 -3.137541e-18)
(17.99188 -2.846814 0)
(18.05058 -2.164807 1.577821e-18)
(18.00194 -1.506295 -1.537034e-18)
(17.85134 -0.9155049 7.364291e-19)
(17.61339 -0.4761956 -1.739581e-19)
(17.87517 -0.329229 -3.107654e-19)
(18.36132 -0.2484351 8.979493e-21)
(16.81833 0.3885411 -1.356016e-18)
(15.55484 1.816956 5.208255e-20)
(14.44609 2.884934 0)
(12.79744 2.98274 0)
(7.879377 1.997005 -2.825186e-20)
(-0.08620251 -1.992816 2.452535e-20)
(-5.75424 -4.632932 0)
(-6.12364 -2.992816 0)
(-5.676717 -1.709304 0)
(-3.627933 -0.5567143 3.603662e-18)
(-1.379547 0.183834 -2.99801e-18)
(0.04172361 0.6629169 3.627062e-19)
(0.6330244 1.36215 4.846867e-19)
(1.117609 1.87911 2.366178e-20)
(2.880454 2.007193 -8.512956e-19)
(0.5883814 -0.6857587 -5.204435e-19)
(-0.465958 -1.195951 7.08509e-21)
(-1.248759 -1.528358 8.601401e-21)
(-1.525001 -1.710266 -1.621733e-20)
(-1.569658 -1.644071 -1.771255e-20)
(-1.372051 -1.168695 1.016095e-18)
(-0.7782469 -0.3992259 0)
(-0.2559988 0.6063937 5.874703e-19)
(0.5401825 1.816417 -6.141714e-19)
(1.750071 3.153282 7.467235e-19)
(2.5109 3.821764 0)
(1.741587 2.643499 0)
(0.4153586 0.89786 -2.552961e-21)
(-0.1464992 -0.5069062 -2.217152e-19)
(-0.1471574 -1.679804 1.900156e-19)
(-0.3848504 -2.818544 -2.27777e-19)
(-0.5316986 -2.450711 0)
(-0.5726163 -1.503494 0)
(-0.4877204 -0.387009 0)
(-0.4275381 1.034844 -2.567796e-19)
(-0.3938437 2.649622 -1.849672e-19)
(-0.4045091 4.148488 -2.532156e-19)
(-0.7604269 5.462498 1.334195e-19)
(-0.9750257 6.656279 0)
(-1.169625 7.634714 -7.77677e-19)
(-1.378945 8.25785 0)
(-1.506468 8.490425 -1.838648e-18)
(-1.531767 8.334958 0)
(-1.303266 7.648739 0)
(-0.7794443 7.744578 -1.264605e-18)
(-0.1844113 6.235589 -2.45486e-18)
(-0.4525712 3.381649 3.030892e-18)
(-1.393282 2.278372 -2.805159e-18)
(-1.20477 1.261804 2.149345e-18)
(-0.674751 0.6209649 0)
(-0.08598274 0.1038452 5.088091e-18)
(-0.5528405 0.220397 2.829561e-18)
(-1.949319 1.286014 3.245392e-18)
(-2.968401 2.474667 -1.065603e-19)
(-3.786587 3.503358 -1.506989e-19)
(-4.142585 4.205884 -5.105589e-18)
(-3.869492 4.393271 1.024377e-17)
(-2.843413 4.040044 3.968619e-18)
(-1.288529 3.561138 6.476712e-20)
(1.156334 1.207612 1.56496e-18)
(2.656013 -2.084988 1.438558e-18)
(4.296454 -3.581658 1.806814e-18)
(6.151047 -3.974645 0)
(7.514618 -3.994687 -3.686601e-20)
(8.475725 -4.091825 0)
(8.580838 -4.273459 3.956254e-18)
(7.931743 -4.423972 4.66697e-18)
(6.871517 -3.917196 7.033391e-18)
(5.46411 -2.189344 -2.655797e-19)
(5.235869 0.09977061 1.366436e-19)
(10.43663 0.4574147 -4.867771e-18)
(17.72604 -1.196252 0)
(18.15369 -1.738922 -1.235073e-18)
(18.12767 -1.291991 -1.445874e-18)
(18.18899 -0.4667539 1.4001e-18)
(18.02486 0.1037142 3.37074e-19)
(18.13826 0.6183615 0)
(18.24616 1.247899 7.643934e-19)
(18.2829 1.929526 0)
(18.23549 2.618028 0)
(18.09994 3.2986 3.196043e-18)
(17.89666 3.992225 -4.847286e-20)
(17.63159 4.650143 4.932161e-20)
(17.29753 5.28369 -2.923578e-18)
(16.90321 5.871826 5.841357e-18)
(16.45366 6.436074 -5.547761e-18)
(15.96716 6.976436 -5.332175e-18)
(15.44346 7.454501 2.405261e-19)
(14.86722 7.89406 -1.538888e-19)
(14.25287 8.273998 -1.34953e-19)
(13.59939 8.608917 -3.87734e-18)
(12.91939 8.887636 -3.937696e-18)
(12.21455 9.105421 -1.033945e-19)
(11.49109 9.279457 3.282468e-18)
(10.76467 9.396514 0)
(10.02919 9.441487 2.442385e-18)
(9.279488 9.424334 2.060854e-18)
(8.530959 9.356438 1.623611e-18)
(7.798381 9.234273 1.301674e-18)
(7.079999 9.049688 0)
(6.37522 8.802038 0)
(5.685197 8.504166 1.237866e-19)
(5.02773 8.141097 0)
(4.388481 7.727727 0)
(3.789178 7.263252 1.003816e-18)
(3.228824 6.754114 -1.832825e-20)
(2.709178 6.204725 -1.409711e-20)
(2.232735 5.616119 -3.207025e-20)
(1.807546 4.988846 2.23853e-18)
(1.4336 4.326832 0)
(1.117515 3.639864 0)
(0.8390784 2.942423 1.472258e-18)
(0.6404959 2.214025 7.433855e-19)
(0.4789151 1.475827 8.059867e-19)
(0.3743816 0.759934 -4.194869e-19)
(0.3466923 0.04969232 0)
(0.4298082 -0.7039072 -3.73743e-22)
(0.5155319 -1.503648 2.51162e-20)
(0.6559856 -2.280764 7.556616e-19)
(0.8640027 -3.022787 -1.482207e-18)
(1.130051 -3.73444 -4.21166e-20)
(1.453085 -4.418228 1.28614e-18)
(1.826492 -5.069118 3.796939e-20)
(2.259721 -5.685957 2.06467e-18)
(2.726494 -6.275118 -1.359118e-20)
(3.241788 -6.81388 -1.514296e-18)
(3.809111 -7.306781 4.063849e-20)
(4.401863 -7.765645 0)
(5.026956 -8.169342 4.844666e-19)
(5.69763 -8.517441 0)
(6.386152 -8.825185 0)
(7.085353 -9.071415 -6.293219e-19)
(7.804429 -9.246582 1.928771e-18)
(8.536668 -9.367296 4.705338e-20)
(9.271373 -9.432893 -1.006954e-19)
(10.01206 -9.435009 -2.054686e-18)
(10.74898 -9.383867 -2.349178e-18)
(11.47226 -9.272764 2.843713e-18)
(12.17418 -9.098932 -3.095199e-18)
(12.85224 -8.862909 -7.364766e-20)
(13.51162 -8.569284 0)
(14.13974 -8.233248 -4.067245e-18)
(14.73484 -7.839103 8.561729e-18)
(15.28708 -7.400413 -4.555514e-18)
(15.79384 -6.914218 0)
(16.25826 -6.384897 9.049405e-20)
(16.66946 -5.827385 -4.888802e-18)
(17.01998 -5.230082 -7.786834e-20)
(17.30608 -4.597338 1.28089e-19)
(17.5259 -3.93804 -8.031238e-20)
(17.67396 -3.270612 0)
(17.73905 -2.594459 -2.513272e-18)
(17.70924 -1.920171 1.195981e-18)
(17.58639 -1.287516 5.791271e-19)
(17.38498 -0.7472539 -8.900652e-21)
(17.27461 -0.4169437 2.557408e-19)
(17.9452 -0.2051687 4.843104e-19)
(18.46612 0.6520932 0)
(18.11855 2.192629 1.215325e-18)
(16.7278 3.233107 -5.156279e-20)
(15.24447 3.132736 1.331243e-18)
(11.04022 1.890066 0)
(1.547257 -2.393732 0)
(-2.477414 -3.940097 0)
(-3.492841 -1.985449 1.182495e-19)
(-3.253982 -0.2923754 5.963524e-18)
(-1.780071 0.80229 -3.139489e-18)
(0.07453854 1.293571 1.304855e-18)
(1.261115 1.526363 -5.480449e-19)
(1.463592 1.964088 -4.083603e-19)
(0.7599127 1.665858 0)
(1.67188 0.7655276 7.038673e-19)
(0.2799662 -1.300217 4.210609e-19)
(-0.5083596 -1.41917 1.481593e-19)
(-1.373994 -1.7857 -1.266011e-20)
(-1.754888 -2.016858 -3.25672e-20)
(-1.897941 -1.991863 3.192199e-20)
(-1.776281 -1.498207 0)
(-1.202889 -0.7746547 -6.783826e-19)
(-0.7389823 0.2105213 1.562921e-20)
(-0.006056007 1.315167 1.004188e-18)
(1.077398 2.296297 -6.422732e-19)
(2.1834 3.1992 3.035951e-20)
(1.960453 2.619673 -3.062083e-19)
(0.6535234 0.7765588 0)
(-0.1634671 -1.252996 -1.691312e-19)
(-0.2419669 -2.541078 1.550431e-19)
(-0.4301156 -3.052867 -1.186647e-20)
(-0.6179115 -2.39289 2.524333e-19)
(-0.7162989 -1.474219 -1.233621e-20)
(-0.6590135 -0.3130495 4.606231e-21)
(-0.650776 1.112331 2.126971e-19)
(-0.6224904 2.715888 -2.801171e-21)
(-0.5982727 4.170115 2.112848e-21)
(-0.9705639 5.435437 7.666114e-21)
(-1.156433 6.59989 2.618004e-19)
(-1.302584 7.540151 6.384187e-19)
(-1.443467 8.125524 -7.127148e-19)
(-1.521414 8.348465 1.518732e-18)
(-1.460291 8.220475 0)
(-1.21691 7.65158 1.228057e-18)
(-0.6160591 7.389332 1.133154e-18)
(-0.3458959 7.216595 2.024206e-18)
(-1.086132 5.72426 0)
(-1.885463 3.983335 0)
(-1.505985 2.278645 -1.783275e-18)
(-0.7352449 1.090465 -5.960748e-20)
(-0.09299174 0.2420497 -2.006875e-18)
(-0.8221431 0.3344501 -2.283011e-18)
(-2.191789 1.134912 -2.564919e-18)
(-3.10046 2.23196 3.125986e-18)
(-3.833715 3.267359 -3.667364e-18)
(-4.036225 4.017735 4.080593e-18)
(-3.561067 4.259515 -4.10454e-18)
(-2.338203 3.910108 0)
(-0.6198579 3.447004 0)
(1.152535 1.892383 -1.325405e-18)
(3.039456 -1.708064 0)
(6.15705 -4.263971 -5.799784e-20)
(8.596998 -5.048244 -2.143669e-20)
(10.17507 -5.188023 -2.508128e-18)
(11.14692 -5.30876 -8.63344e-20)
(11.41677 -5.586048 2.487747e-20)
(11.39319 -5.999712 -3.666035e-18)
(11.51563 -5.766973 -9.774147e-20)
(11.61483 -3.947912 3.77655e-18)
(12.39581 -1.114763 -8.323429e-20)
(16.05971 -0.03151489 2.025501e-18)
(18.43201 -0.9823136 -5.841849e-20)
(17.31856 -1.606187 4.257386e-18)
(17.79124 -1.238041 3.519659e-20)
(18.00186 -0.5437061 -9.048525e-21)
(18.02807 -0.07548866 -5.791393e-19)
(18.16421 0.3757946 -4.710648e-21)
(18.27186 0.9364758 -6.305389e-19)
(18.31262 1.576178 -3.966441e-20)
(18.26314 2.246693 -1.223478e-18)
(18.12351 2.923216 2.503021e-18)
(17.92041 3.621294 -2.468307e-18)
(17.66282 4.277416 4.712249e-18)
(17.33215 4.933592 2.55962e-18)
(16.93967 5.537009 0)
(16.48919 6.119273 0)
(16.00384 6.680276 4.323852e-18)
(15.48147 7.176746 4.116855e-18)
(14.90586 7.633743 0)
(14.29492 8.024695 -1.08651e-19)
(13.64171 8.373751 3.51598e-18)
(12.95907 8.671801 3.137837e-18)
(12.25563 8.900965 2.771555e-18)
(11.53864 9.080065 -7.423366e-20)
(10.81439 9.209463 -2.135497e-18)
(10.07608 9.270639 5.524313e-20)
(9.331221 9.259181 -5.578536e-20)
(8.591416 9.194594 -1.370612e-18)
(7.861833 9.081731 1.022662e-18)
(7.139438 8.912423 0)
(6.442788 8.668787 0)
(5.755281 8.380764 -1.740371e-19)
(5.106739 8.023302 -9.322813e-21)
(4.472097 7.618194 -8.945969e-21)
(3.888741 7.157598 -7.742264e-19)
(3.336858 6.655407 -2.117454e-18)
(2.809687 6.122725 1.245833e-18)
(2.335698 5.545944 -1.545597e-18)
(1.915398 4.929177 -8.758437e-19)
(1.551379 4.275699 -3.020911e-20)
(1.244209 3.594254 0)
(0.9590904 2.911833 -1.14883e-18)
(0.7736898 2.192489 -3.876979e-20)
(0.6068981 1.456809 -6.700258e-19)
(0.4987856 0.7435351 3.593328e-19)
(0.474125 0.02647457 2.594948e-23)
(0.5727599 -0.7096949 -3.603265e-19)
(0.6484861 -1.500381 3.101161e-20)
(0.7844422 -2.26305 -6.581996e-19)
(0.9841893 -2.985253 1.21416e-18)
(1.244003 -3.681235 -1.178397e-18)
(1.562584 -4.354082 2.515094e-21)
(1.931578 -4.994927 9.892025e-19)
(2.369097 -5.601108 -1.643213e-18)
(2.827079 -6.185178 1.444459e-18)
(3.331496 -6.718739 1.133018e-18)
(3.899532 -7.202968 7.950626e-21)
(4.499175 -7.649887 8.387441e-21)
(5.116654 -8.046941 -3.806848e-19)
(5.770998 -8.396185 1.460517e-19)
(6.459145 -8.695733 9.911109e-21)
(7.157016 -8.93213 4.332307e-19)
(7.868145 -9.1012 -1.529596e-18)
(8.592471 -9.218231 1.041388e-18)
(9.331694 -9.266806 -5.4876e-20)
(10.06957 -9.25931 -1.638527e-18)
(10.79897 -9.204229 3.858083e-18)
(11.52228 -9.080161 7.226474e-20)
(12.22128 -8.896167 2.401431e-18)
(12.89962 -8.644382 -2.812366e-18)
(13.5609 -8.334228 8.72493e-20)
(14.188 -7.985227 -3.200378e-18)
(14.78369 -7.572742 -3.283179e-18)
(15.33526 -7.118084 1.127962e-19)
(15.84349 -6.608757 -3.759318e-18)
(16.30837 -6.05777 3.882296e-18)
(16.71943 -5.481053 0)
(17.06802 -4.86659 0)
(17.35055 -4.221248 2.079983e-18)
(17.56828 -3.56457 2.056136e-18)
(17.71756 -2.90174 0)
(17.78101 -2.247305 1.074374e-18)
(17.74831 -1.61303 9.629007e-19)
(17.61684 -1.043435 -4.858514e-19)