/*--------------------------------*- C++ -*----------------------------------*\
| =========                 |                                                 |
| \\      /  F ield         | OpenFOAM: The Open Source CFD Toolbox           |
|  \\    /   O peration     | Version:  2406                                  |
|   \\  /    A nd           | Website:  www.openfoam.com                      |
|    \\/     M anipulation  |                                                 |
\*---------------------------------------------------------------------------*/
FoamFile
{
    version     2.0;
    format      ascii;
    arch        "LSB;label=32;scalar=64";
    class       surfaceScalarField;
    location    "1.04";
    object      phi;
}
// * * * * * * * * * * * * * * * * * * * * * * * * * * * * * * * * * * * * * //

dimensions      [0 3 -1 0 0 0 0];

oriented        oriented;

internalField   nonuniform List<scalar> 
23794
(
0.006179413
-0.005371886
-0.0008075278
0.006758092
-0.0005786791
0.007022216
-0.000264124
0.006793018
0.0002291989
0.005669495
0.001123522
0.003164105
0.002505391
0.0001557699
0.003008335
-0.001986505
0.002142275
-0.003894657
0.001908152
-0.004830618
0.000935961
-0.003677743
-0.001152874
-0.002128875
-0.001548868
-0.001190827
-0.0009380479
-0.0007538819
-0.0004369452
-0.0002747
-0.0004791819
0.0003681101
-0.00064281
0.001283692
-0.0009155824
0.003264557
-0.001980864
0.005689618
-0.002425061
0.007168578
-0.00147896
0.006983654
0.0001849238
0.00453041
0.002453245
7.944392e-05
0.004450966
-0.004343784
0.004423228
-0.004019252
-0.0003245319
-0.0003391223
-0.00368013
0.002474425
-0.002813548
0.003475741
-0.001001316
0.004318359
-0.0008426173
0.006367727
-0.002049368
0.009706469
-0.003338743
0.01085551
-0.001149043
0.006061453
0.004794059
-0.0003061118
0.006367565
-0.001544126
0.001238014
0.001197062
-0.002741188
0.000369412
0.0008276502
-0.004890278
0.00525969
-0.009522097
0.00463182
-0.01227764
0.002755541
-0.0137166
0.001438959
-0.01454773
0.0008311314
-0.01508572
0.0005379887
-0.01544762
0.0003619007
-0.01569022
0.0002426023
-0.01574704
5.681593e-05
-0.01572349
-2.354971e-05
-0.01566145
-6.203381e-05
-0.01555545
-0.0001060028
-0.01543605
-0.0001194023
-0.01525923
-0.0001768209
-0.01504366
-0.0002155693
-0.01477078
-0.0002728775
-0.01447589
-0.0002948904
-0.01416571
-0.0003101747
-0.01380226
-0.0003634529
-0.01342077
-0.0003814868
-0.01303319
-0.0003875864
-0.0125815
-0.0004516867
-0.0121083
-0.0004732007
-0.01161101
-0.000497296
-0.01110874
-0.0005022698
-0.01058653
-0.0005222097
-0.0100149
-0.0005716264
-0.009452629
-0.0005622702
-0.008850062
-0.0006025673
-0.008230077
-0.0006199848
-0.007606605
-0.0006234719
-0.006976159
-0.0006304465
-0.006314562
-0.0006615971
-0.005652942
-0.000661619
-0.004985415
-0.0006675272
-0.004306894
-0.000678521
-0.003634341
-0.0006725537
-0.002979433
-0.0006549076
-0.002287756
-0.0006916775
-0.001607488
-0.0006802675
-0.0009235291
-0.0006839589
-0.000160709
-0.0007628202
0.0006272302
-0.0007879392
0.001347217
-0.0007199866
0.002047402
-0.0007001851
0.002738813
-0.0006914109
0.00341396
-0.0006751475
0.004088847
-0.0006748868
0.004744427
-0.0006555795
0.005411764
-0.0006673373
0.006059138
-0.0006473743
0.006672393
-0.0006132549
0.00728936
-0.0006169666
0.007893208
-0.0006038487
0.008474224
-0.0005810158
0.009051056
-0.0005768316
0.009612686
-0.0005616297
0.01012134
-0.0005086564
0.01062411
-0.0005027633
0.01111071
-0.0004866025
0.01155628
-0.0004455741
0.01200118
-0.0004448933
0.01239452
-0.0003933407
0.01275973
-0.0003652137
0.01308555
-0.0003258205
0.01336808
-0.0002825256
0.01364388
-0.0002758061
0.0138816
-0.0002377168
0.01407882
-0.0001972249
0.01423254
-0.0001537138
0.01434185
-0.0001093079
0.01441853
-7.668663e-05
0.01442698
-8.451648e-06
0.01438609
4.089844e-05
0.01423523
0.0001508576
0.01389167
0.0003435548
0.01334169
0.0005499789
0.01249127
0.0008504216
0.01102466
0.001466617
0.008266836
0.002757819
0.003867506
0.00439933
-0.0005489242
0.004416431
-0.0007113315
0.0001624073
0.001644786
-0.002356117
-0.000109099
0.001753885
-0.006472577
0.006363478
-0.01017083
0.003698258
-0.008421478
-0.001749357
-0.005222032
-0.003199446
-0.003292553
-0.001929479
-0.002342821
-0.0009497322
-0.0008687878
-0.001474033
0.00158859
-0.002457378
0.003406127
-0.001817537
0.001799086
0.001607041
-0.001715549
0.003514635
-0.004519088
0.002803539
-0.004956672
0.0004375841
-0.003876951
-0.001079721
-0.001851729
-0.002025221
0.0004643943
-0.002316123
0.002065886
-0.001601491
0.002874019
-0.0008081336
0.003200231
-0.0003262117
0.003053293
0.0001469375
0.002625595
0.000427698
0.001949882
0.0006757134
0.0009301338
0.001019748
2.97781e-05
0.0009003557
-0.0003482716
0.0003780497
-0.000279285
-6.898665e-05
-0.0001776346
-0.0001016504
-0.0005737974
0.0003961629
-0.0008522131
0.0002784157
-0.0002273157
-0.0006248973
0.0008263214
-0.001053637
0.001929427
-0.001103106
0.003127641
-0.001198213
0.004354031
-0.001226391
-0.001017854
0.007864368
-0.006794872
-0.001877023
0.008668787
-0.001383098
0.00914335
-0.0007386869
0.009344554
2.79952e-05
0.009250809
0.001217267
0.007854609
0.00390159
0.003530389
0.007332556
-0.001902789
0.007575453
-0.00472235
0.004727713
-0.004510464
0.0007240748
-0.00291087
-0.002752468
-0.001398671
-0.003061068
-0.0004635882
-0.00187313
-0.0001745741
-0.0007259593
-0.0004351734
-0.0002185826
-0.0003850254
-0.000692958
0.001089932
-0.00239054
0.00417223
-0.005063162
0.007290087
-0.005542918
0.009188862
-0.003377736
0.009551695
-0.000177909
0.00800269
0.00400225
0.002952758
0.009500897
-0.004287743
0.01166373
-0.005522318
0.0009100427
-0.001557621
-0.007644826
0.0006022107
-0.004973379
0.001236886
-0.001635991
0.00162744
-0.001233171
0.003403322
-0.00382525
0.006990994
-0.006926415
0.009924399
-0.004082447
0.007985954
0.006732504
0.001471071
0.01288245
-0.004092439
0.006801524
-0.008607249
0.001773622
-0.01359506
0.005815457
-0.01833085
0.009995481
-0.02156985
0.007870825
-0.02249747
0.003683161
-0.02271709
0.001658575
-0.02274937
0.0008634136
-0.02270811
0.0004967294
-0.02262661
0.0002804033
-0.02252125
0.0001372383
-0.02231148
-0.0001529595
-0.02208724
-0.0002477831
-0.02184567
-0.0003036091
-0.02155841
-0.0003932556
-0.02125883
-0.0004189811
-0.02089959
-0.0005360696
-0.02050221
-0.0006129451
-0.02004272
-0.0007323682
-0.01956001
-0.0007775978
-0.01906822
-0.0008019637
-0.01851889
-0.0009127903
-0.01794722
-0.0009531525
-0.01737387
-0.0009609364
-0.01672678
-0.00109878
-0.01605955
-0.001140425
-0.01536446
-0.001192386
-0.01466299
-0.001203745
-0.01394443
-0.001240763
-0.01316699
-0.001349072
-0.0124022
-0.001327064
-0.01159541
-0.001409353
-0.01076634
-0.001449059
-0.009936623
-0.001453184
-0.009103392
-0.001463678
-0.008232191
-0.001532798
-0.007360078
-0.001533732
-0.006484036
-0.001543569
-0.005596086
-0.001566471
-0.004717294
-0.001551345
-0.003858199
-0.001514003
-0.002960195
-0.001589682
-0.002072209
-0.001568253
-0.001176488
-0.00157968
-0.0001938228
-0.001745486
0.000817492
-0.001799254
0.001753832
-0.001656327
0.002666741
-0.001613094
0.003566615
-0.001591285
0.004449836
-0.001558368
0.005334108
-0.001559158
0.006196334
-0.001517806
0.007072133
-0.001543135
0.007926193
-0.001501434
0.008739195
-0.001426257
0.009558615
-0.001436387
0.01036698
-0.001412215
0.01114706
-0.001361091
0.01192277
-0.001352548
0.01268606
-0.001324914
0.01338686
-0.00120946
0.01408492
-0.001200825
0.01476511
-0.001166787
0.01539951
-0.001079973
0.01603521
-0.001080593
0.01661061
-0.0009687431
0.01716161
-0.0009162094
0.01766871
-0.0008329228
0.0181284
-0.0007422174
0.01858725
-0.000734657
0.01900597
-0.0006564395
0.01938062
-0.0005718703
0.01971107
-0.0004841682
0.01999646
-0.000394696
0.02024934
-0.0003295638
0.02044127
-0.0002003789
0.02063833
-0.0001561693
0.02081248
-2.329107e-05
0.02089564
0.0002603975
0.02091573
0.0005298886
0.02085983
0.0009063211
0.02060645
0.001719997
0.01955499
0.003809285
0.0162906
0.007663718
0.0118571
0.008849925
0.007156446
0.004863063
0.003142235
0.001658094
-0.002052309
0.006948429
-0.008070062
0.01238123
-0.009295328
0.004923524
-0.006229298
-0.004815387
-0.002692888
-0.006735856
-0.0009265914
-0.003695776
-0.000337987
-0.001538337
0.0006295044
-0.002441524
0.00303424
-0.004862113
0.004512998
-0.003296295
0.0006134168
0.005506622
-0.004233285
0.008361337
-0.006443545
0.0050138
-0.006301591
0.0002956295
-0.004965149
-0.002416163
-0.002521109
-0.004469261
0.0003059156
-0.005143148
0.002614679
-0.003910255
0.00426523
-0.002458685
0.00533825
-0.001399232
0.005611868
-0.0001266802
0.005282794
0.0007567719
0.004565341
0.001393166
0.003168097
0.002416992
0.001276198
0.002792255
9.566373e-06
0.001644681
-0.0003859036
0.0003264833
-0.0008779382
0.0003903843
-0.00154174
0.001059965
-0.00126828
4.955403e-06
-0.0002416567
-0.001651521
0.001005284
-0.002300578
0.002420606
-0.002518428
0.003938502
-0.002716109
0.005480698
-0.002768587
-0.002332029
0.009515836
-0.008225058
-0.003167802
0.01048423
-0.002351496
0.01104328
-0.001297734
0.01113426
-6.298548e-05
0.01096738
0.001384148
0.01057953
0.004289436
0.00776835
0.01014374
0.001307953
0.01403585
-0.002876905
0.008912571
-0.002333705
0.0001808742
-0.0007216601
-0.004364513
0.0002845447
-0.004067273
0.0008660078
-0.002454593
0.0009828137
-0.0008427652
0.0004041461
0.000360085
-0.0001335458
-0.000155266
0.001706693
-0.004230778
0.005576883
-0.008933353
0.009043941
-0.009009976
0.01115021
-0.005484007
0.01142054
-0.0004482385
0.009785837
0.005636954
0.005556101
0.01373063
-0.002356234
0.01957606
-0.00597687
0.004530679
-0.003919887
-0.009701809
-0.003390362
-0.005502904
-0.00415764
-0.0008687137
-0.004198591
-0.00119222
-0.001827638
-0.006196203
0.002121346
-0.0108754
0.00512127
-0.007082372
0.004631175
0.007222599
-0.001371369
0.01888499
-0.01288774
0.01831789
-0.02163648
0.01052236
-0.0253967
0.009575676
-0.02671767
0.01131646
-0.02673634
0.007889494
-0.02652737
0.00347419
-0.02658878
0.001719984
-0.02666047
0.0009350999
-0.02670207
0.0005383255
-0.02669622
0.0002745551
-0.02665498
9.600249e-05
-0.02645299
-0.0003549523
-0.02620439
-0.0004963779
-0.02593001
-0.0005779924
-0.02560117
-0.0007221007
-0.02525957
-0.0007605746
-0.02484349
-0.0009521518
-0.02438302
-0.001073416
-0.02384631
-0.00126908
-0.02328159
-0.001342319
-0.02270699
-0.001376557
-0.02206028
-0.001559502
-0.0213867
-0.001626737
-0.02071266
-0.001634976
-0.01994704
-0.001864397
-0.01915738
-0.001930082
-0.0183338
-0.00201597
-0.01750213
-0.002035417
-0.01664981
-0.002093082
-0.01572431
-0.002274572
-0.01481542
-0.002235955
-0.01385331
-0.002371456
-0.01286433
-0.002438045
-0.01187356
-0.00244395
-0.01087784
-0.002459397
-0.009835514
-0.002575127
-0.008791428
-0.002577818
-0.007741293
-0.002593704
-0.006676873
-0.002630891
-0.005621995
-0.002606223
-0.00459062
-0.002545378
-0.003515158
-0.002665144
-0.002452429
-0.002630982
-0.001382361
-0.002649748
-0.0002184352
-0.002909412
0.0009788267
-0.002996516
0.002097627
-0.002775127
0.003190364
-0.002705831
0.00426671
-0.002667631
0.00532328
-0.002614938
0.006380379
-0.002616257
0.007410337
-0.002547764
0.008456304
-0.002589103
0.009475321
-0.002520452
0.01044499
-0.002395931
0.0114221
-0.002413497
0.01238484
-0.002374947
0.01331325
-0.002289509
0.01423668
-0.002275977
0.01514401
-0.002232242
0.01597548
-0.002040927
0.01680415
-0.002029493
0.01761057
-0.001973214
0.01836079
-0.001830195
0.0191143
-0.0018341
0.01979324
-0.001647678
0.02044381
-0.001566786
0.02104071
-0.001429821
0.02157906
-0.001280564
0.02211823
-0.001273832
0.02260647
-0.001144678
0.02304351
-0.001008912
0.02342648
-0.0008671347
0.02375547
-0.0007236827
0.02404658
-0.0006206776
0.0242615
-0.0004153027
0.0244621
-0.000356765
0.02460175
-0.0001629443
0.02461339
0.0002487627
0.02455321
0.0005900693
0.02447057
0.0009889609
0.02442517
0.001765396
0.02461399
0.003620465
0.02445224
0.007825468
0.02290493
0.01039723
0.01878176
0.008986227
0.010072
0.01036786
-0.0004130484
0.01743348
-0.005070941
0.01703912
-0.005188296
0.00504088
-0.00220848
-0.007795203
0.001642094
-0.01058643
0.003932512
-0.005986194
0.004156333
-0.001762158
0.003817713
-0.002102903
0.004726589
-0.00577099
0.004436665
-0.00300637
-0.0006119828
0.01055527
-0.005573589
0.01332294
-0.007566389
0.007006599
-0.007454354
0.0001835944
-0.005907336
-0.003963181
-0.003175603
-0.007200994
-0.0001085026
-0.008210249
0.002565134
-0.006583891
0.004544403
-0.004437954
0.005981583
-0.002836411
0.006540654
-0.0006857515
0.006321567
0.0009758592
0.005771901
0.001942832
0.004734564
0.00345433
0.002867482
0.004659336
0.0009008564
0.003611307
-0.0003357235
0.001563063
-0.001497765
0.001552426
-0.002109053
0.001671252
-0.001438098
-0.0006659987
-0.0002321977
-0.002857421
0.001239903
-0.003772679
0.002948676
-0.004227201
0.004778767
-0.0045462
0.006636105
-0.004625926
-0.003920981
0.01156176
-0.01000442
-0.00472514
0.01271717
-0.003506905
0.01336329
-0.001943858
0.01349703
-0.0001967217
0.01307679
0.00180439
0.01266649
0.004699732
0.01155204
0.01125819
0.007021636
0.01856625
0.002442641
0.01349157
0.001702948
0.0009205673
0.002480896
-0.005142461
0.002924835
-0.004511212
0.002864329
-0.002394088
0.00253773
-0.0005161656
0.001807019
0.001090795
0.0009302076
0.0007215458
0.002759872
-0.006060442
0.007081404
-0.01325489
0.01079813
-0.01272671
0.01299995
-0.007685824
0.01315324
-0.000601525
0.01109671
0.007693478
0.00733716
0.01749019
-0.0002489427
0.02716217
-0.006442056
0.01072379
-0.007726179
-0.008417686
-0.009497063
-0.003732021
-0.0112836
0.000917827
-0.01157929
-0.000896532
-0.009310564
-0.00846493
-0.005010662
-0.0151753
-0.001840105
-0.01025293
-0.001692994
0.007075488
-0.01086716
0.02805916
-0.02418224
0.03163297
-0.03120522
0.01754535
-0.03239439
0.01076484
-0.03200494
0.01092701
-0.03162777
0.007512327
-0.0318758
0.003722216
-0.03216397
0.002008159
-0.03232325
0.001094375
-0.03238598
0.0006010582
-0.0323654
0.0002539723
-0.03229451
2.511731e-05
-0.03201942
-0.0006300389
-0.03169565
-0.0008201525
-0.03134127
-0.0009323717
-0.03092147
-0.001141904
-0.03049059
-0.001191453
-0.02997272
-0.001470024
-0.02940319
-0.001642947
-0.02874325
-0.001929012
-0.0280503
-0.002035274
-0.02734715
-0.002079705
-0.02655976
-0.00234689
-0.02574032
-0.002446176
-0.02492094
-0.002454361
-0.02399562
-0.002789718
-0.02303946
-0.002886239
-0.02204378
-0.003011648
-0.02103983
-0.003039367
-0.02001239
-0.003120522
-0.01889583
-0.003391133
-0.01780166
-0.003330121
-0.01664251
-0.003530611
-0.01545263
-0.003627925
-0.01425938
-0.0036372
-0.01306081
-0.003657969
-0.01180622
-0.003829711
-0.01054911
-0.003834932
-0.009283723
-0.003859091
-0.008002027
-0.003912587
-0.006728672
-0.003879578
-0.005485098
-0.003788952
-0.004188741
-0.003961502
-0.00290927
-0.003910453
-0.001627328
-0.003931689
-0.0002482104
-0.004288529
0.001170329
-0.004415056
0.00251125
-0.004116048
0.003825085
-0.004019665
0.005116875
-0.003959421
0.006384
-0.003882064
0.007651498
-0.003883755
0.008886349
-0.003782616
0.01014264
-0.00384539
0.01136413
-0.003741941
0.01252898
-0.003560783
0.01370393
-0.003588448
0.01485977
-0.003530783
0.0159775
-0.003407241
0.01709083
-0.003389313
0.01818219
-0.003323601
0.01918601
-0.003044749
0.0201874
-0.003030884
0.02116102
-0.002946827
0.02206933
-0.002738509
0.02298235
-0.002747124
0.02380663
-0.002471958
0.02459708
-0.00235723
0.02532422
-0.002156959
0.02598442
-0.001940771
0.02664533
-0.001934742
0.02724572
-0.001745062
0.02778774
-0.001550935
0.02826405
-0.001343442
0.02867926
-0.001138894
0.02905197
-0.0009933861
0.0293333
-0.0006966383
0.0296019
-0.0006253633
0.02979626
-0.0003573012
0.02982113
0.0002238877
0.02973266
0.0006785378
0.02955248
0.001169141
0.02926755
0.002050333
0.02906968
0.003818328
0.02943287
0.007462276
0.02962514
0.01020497
0.02796596
0.01064541
0.02000754
0.01832628
0.007328161
0.03011285
-4.822969e-05
0.02441551
0.001161386
0.003831264
0.003925146
-0.01055896
0.007964825
-0.01462611
0.01008471
-0.008106078
0.009996811
-0.00167426
0.008587136
-0.0006932278
0.00733541
-0.004519265
0.004505005
-0.0001759648
-0.001476613
0.01653689
-0.006281118
0.01812745
-0.008464381
0.009189863
-0.008450321
0.0001695347
-0.006728241
-0.005685261
-0.003685589
-0.01024365
-0.0004222122
-0.01147363
0.002359537
-0.00936564
0.004379674
-0.006458091
0.005923741
-0.004380478
0.00655991
-0.001321921
0.006279881
0.001255889
0.005759808
0.002462905
0.005245913
0.003968224
0.004075343
0.005829906
0.002035526
0.005651125
-0.0001057665
0.003704355
-0.002026591
0.003473251
-0.00256826
0.002212921
-0.00163227
-0.001601989
-0.000203297
-0.004286394
0.001590817
-0.005566793
0.003615751
-0.006252134
0.005823973
-0.006754421
0.008079506
-0.006881458
-0.005845896
0.01407963
-0.01222373
-0.006581035
0.01544274
-0.004870017
0.0162098
-0.002710921
0.01634196
-0.0003288799
0.0158479
0.002298449
0.01504539
0.005502248
0.01469006
0.01161352
0.01301154
0.02024477
0.009827172
0.01667594
0.007591395
0.003156344
0.006638622
-0.004189688
0.005881516
-0.003754106
0.005038687
-0.001551259
0.004220641
0.0003018807
0.003550653
0.001760784
0.002771122
0.001501076
0.004307617
-0.007596938
0.008565237
-0.0175125
0.01249895
-0.01666041
0.0148183
-0.01000518
0.01470843
-0.0004916566
0.01204152
0.01036039
0.008165711
0.021366
0.0006515904
0.03467629
-0.00779617
0.01917155
-0.01318995
-0.003023905
-0.01764153
0.0007195597
-0.02046199
0.003738286
-0.02131113
-4.738886e-05
-0.01981955
-0.009956518
-0.01615059
-0.01884426
-0.01233556
-0.01406796
-0.01517343
0.00991336
-0.02539805
0.03828377
-0.03491
0.04114492
-0.03750202
0.02013736
-0.03765184
0.01091467
-0.03753482
0.01080998
-0.03751124
0.007488752
-0.03791773
0.004128699
-0.0382262
0.002316633
-0.03842319
0.001291369
-0.0385387
0.000716569
-0.03853572
0.0002509932
-0.03848783
-2.277336e-05
-0.03818404
-0.0009338353
-0.03782277
-0.001181418
-0.03742396
-0.001331179
-0.03693338
-0.001632487
-0.03644578
-0.001679051
-0.03583684
-0.002078965
-0.03517256
-0.002307229
-0.03439194
-0.002709634
-0.0335725
-0.002854715
-0.03274438
-0.002907818
-0.03180696
-0.003284317
-0.03083166
-0.003421477
-0.02986027
-0.003425748
-0.02875788
-0.003892109
-0.02761517
-0.00402895
-0.02642585
-0.004200961
-0.02522908
-0.004236146
-0.02400367
-0.004345927
-0.02266459
-0.004730214
-0.02135949
-0.004635216
-0.01996986
-0.004920245
-0.01854625
-0.005051538
-0.01711572
-0.005067732
-0.01568031
-0.00509338
-0.01417341
-0.005336609
-0.012663
-0.005345342
-0.01113923
-0.005382858
-0.009597886
-0.005453929
-0.008061621
-0.005415844
-0.006562541
-0.005288031
-0.004996343
-0.0055277
-0.003451719
-0.005455076
-0.001914449
-0.00546896
-0.0002829077
-0.00592007
0.001395821
-0.006093785
0.003004351
-0.005724578
0.004584178
-0.005599492
0.006131703
-0.005506946
0.007649199
-0.005399559
0.00916924
-0.005403796
0.01064901
-0.005262385
0.0121584
-0.005354776
0.01361924
-0.005202787
0.01501798
-0.004959518
0.0164312
-0.005001669
0.01781292
-0.004912509
0.01915377
-0.004748087
0.0204942
-0.004729744
0.02179905
-0.004628451
0.02300104
-0.00424674
0.02420227
-0.00423211
0.02536629
-0.00411085
0.02644878
-0.003820993
0.02754272
-0.003841068
0.02852439
-0.003453626
0.0294653
-0.003298144
0.0303291
-0.003020759
0.03110928
-0.002720947
0.03189369
-0.002719153
0.03259811
-0.002449485
0.03323727
-0.002190093
0.03379086
-0.001897032
0.03427098
-0.001619013
0.03470368
-0.001426089
0.03501208
-0.001005039
0.03531306
-0.0009263363
0.03551598
-0.0005602218
0.03551645
0.0002234185
0.03538458
0.000810399
0.03516299
0.001390731
0.0348508
0.00236253
0.03446569
0.004203439
0.03447619
0.007451769
0.03447542
0.01020574
0.03423695
0.01088388
0.03043632
0.02212691
0.02004849
0.04050069
0.01101353
0.03345047
0.009501409
0.005343389
0.0134058
-0.01446335
0.01692162
-0.01814194
0.01832649
-0.009510941
0.01762058
-0.0009683489
0.01497314
0.001954209
0.01117648
-0.0007226038
0.005421041
0.005579473
-0.001649068
0.023607
-0.006584384
0.02306277
-0.009321538
0.01192702
-0.009542846
0.0003908437
-0.007580715
-0.007647393
-0.004068372
-0.01375599
-0.0006446609
-0.01489734
0.001977536
-0.01198784
0.003759312
-0.008239867
0.005273047
-0.005894213
0.005978279
-0.002027153
0.005812905
0.001421263
0.005386401
0.002889409
0.005180485
0.004174141
0.004697153
0.006313238
0.002920576
0.007427701
4.324802e-05
0.006581684
-0.002591276
0.006107775
-0.00303047
0.002652115
-0.001841527
-0.002790933
-0.0001213327
-0.006006588
0.002062479
-0.007750604
0.004479829
-0.008669484
0.007169795
-0.009444388
0.00991451
-0.009626173
-0.00815512
0.01718111
-0.01499507
-0.008767078
0.01877429
-0.006463193
0.01964965
-0.003586283
0.01978346
-0.0004626915
0.01925148
0.002830435
0.01815939
0.006594334
0.01767115
0.01210175
0.01770505
0.02021087
0.01609701
0.01828398
0.01312323
0.006130118
0.0104561
-0.001522558
0.008399466
-0.001697468
0.006797012
5.119542e-05
0.005594347
0.001504545
0.00516215
0.002192981
0.004827619
0.001835607
0.006120809
-0.008890128
0.01006299
-0.02145469
0.01431852
-0.02091594
0.01689802
-0.01258468
0.01633361
7.275469e-05
0.01260972
0.01408428
0.007916431
0.02605929
0.0003181555
0.04227456
-0.01083632
0.03032603
-0.02052967
0.006669444
-0.02727411
0.007464003
-0.03104519
0.00750936
-0.03288338
0.001790806
-0.03318032
-0.009659574
-0.03236064
-0.01966395
-0.03191897
-0.01450963
-0.03608472
0.01407911
-0.04216211
0.04436116
-0.04419734
0.04318016
-0.04384062
0.01978063
-0.0447492
0.01182326
-0.04514521
0.01120599
-0.04536306
0.007706606
-0.04584685
0.004612483
-0.04618194
0.00265173
-0.04638304
0.001492463
-0.04648874
0.0008222744
-0.04642529
0.0001875434
-0.04634104
-0.0001070271
-0.04595205
-0.001322827
-0.04550527
-0.001628199
-0.04500607
-0.001830374
-0.0443877
-0.002250859
-0.04380187
-0.002264885
-0.04305405
-0.002826781
-0.04225107
-0.00311021
-0.04130332
-0.003657385
-0.04030907
-0.003848959
-0.03931315
-0.003903738
-0.03817897
-0.004418502
-0.03700302
-0.004597428
-0.03583965
-0.004589117
-0.03451426
-0.0052175
-0.03313567
-0.005407538
-0.03170786
-0.005628772
-0.03027165
-0.005672355
-0.02880503
-0.005812543
-0.02719123
-0.006344016
-0.0256343
-0.00619215
-0.02396412
-0.00659042
-0.02225827
-0.006757388
-0.02054422
-0.00678178
-0.01882711
-0.006810489
-0.01702057
-0.007143153
-0.01521203
-0.007153885
-0.01337747
-0.007217418
-0.01152563
-0.007305765
-0.009667553
-0.007273923
-0.007863772
-0.007091813
-0.005971834
-0.007419639
-0.004099679
-0.007327231
-0.0022536
-0.007315038
-0.0003219071
-0.007851764
0.001663952
-0.008079644
0.003599371
-0.007659997
0.00549096
-0.007491081
0.007342883
-0.00735887
0.009162286
-0.007218962
0.01098592
-0.007227426
0.01275953
-0.007035995
0.01457738
-0.007172629
0.01632447
-0.006949876
0.01800791
-0.00664296
0.01971451
-0.006708268
0.02136696
-0.006564959
0.02297597
-0.006357099
0.02459986
-0.006353631
0.02616263
-0.006191221
0.02760214
-0.005686248
0.02904823
-0.005678199
0.03044681
-0.00550943
0.0317423
-0.005116484
0.03306086
-0.005159632
0.03424174
-0.004634502
0.03537434
-0.004430749
0.03641249
-0.004058901
0.0373549
-0.00366336
0.03830814
-0.003672391
0.03915517
-0.003296516
0.03993785
-0.002972777
0.04060879
-0.002567972
0.04119952
-0.002209744
0.0417339
-0.001960462
0.04212426
-0.001395404
0.04249953
-0.001301611
0.04277163
-0.0008323135
0.04282215
0.0001728973
0.04269833
0.0009342215
0.04246194
0.001627117
0.0421218
0.002702674
0.04164911
0.004676128
0.041418
0.007682874
0.0408388
0.01078494
0.04016019
0.01156249
0.04000401
0.02228309
0.03609875
0.04440595
0.02941369
0.04013552
0.02609177
0.008665307
0.02729973
-0.01567131
0.02849987
-0.01934207
0.02830547
-0.009316545
0.02660237
0.0007347554
0.02279806
0.005758517
0.01646851
0.005606947
0.007677721
0.01437026
-0.0009147087
0.03219943
-0.006526936
0.02867499
-0.01037374
0.01577382
-0.01110647
0.001123579
-0.008690721
-0.01006314
-0.004416169
-0.01803054
-0.0007799477
-0.01853356
0.001554252
-0.01432204
0.003001779
-0.009687394
0.004690518
-0.007582952
0.005777562
-0.003114197
0.006014416
0.00118441
0.005702199
0.003201625
0.005306403
0.004569937
0.00493471
0.006684931
0.00332407
0.009038341
-0.0001624259
0.01006818
-0.00333318
0.009278529
-0.003503417
0.002822353
-0.002024573
-0.004269777
5.439818e-05
-0.008085559
0.002672976
-0.01036918
0.005617761
-0.01161427
0.0089471
-0.01277373
0.01226766
-0.01294674
-0.01088253
0.02104043
-0.01846464
-0.01134287
0.02289908
-0.008321836
0.02390054
-0.004587748
0.0240306
-0.0005927449
0.02340388
0.003457145
0.02215494
0.00784328
0.02116662
0.01309008
0.02130734
0.02007015
0.02026195
0.01932937
0.01686731
0.009524756
0.01311961
0.002225141
0.01014902
0.001273126
0.008005783
0.002194432
0.006443161
0.003067168
0.006209734
0.002426407
0.006271074
0.001774267
0.007680145
-0.0102992
0.01167258
-0.02544712
0.01646525
-0.02570861
0.01946197
-0.01558141
0.01836319
0.001171539
0.01291145
0.01953601
0.006329628
0.03264112
-0.002404905
0.0510091
-0.01592908
0.04385021
-0.02888542
0.01962578
-0.03704786
0.01562644
-0.04156845
0.01202995
-0.04463884
0.004861199
-0.0471628
-0.007135609
-0.0498911
-0.01693565
-0.0534441
-0.01095663
-0.0572158
0.01785082
-0.05696739
0.04411275
-0.05300108
0.03921385
-0.05223228
0.01901183
-0.05378614
0.01337712
-0.05412222
0.01154207
-0.05435782
0.007942203
-0.05484749
0.005102149
-0.05520851
0.003012751
-0.05544466
0.001728618
-0.05562662
0.001004231
-0.05554149
0.0001024136
-0.05552131
-0.0001272085
-0.05500779
-0.001836344
-0.05449803
-0.002137961
-0.05391934
-0.002409062
-0.05315903
-0.003011177
-0.05249588
-0.002928027
-0.05158586
-0.003736803
-0.05064281
-0.004053257
-0.04950772
-0.004792477
-0.04830942
-0.005047261
-0.04712905
-0.005084106
-0.04577496
-0.005772594
-0.04436446
-0.00600793
-0.04296914
-0.005984439
-0.04139117
-0.006795467
-0.03974117
-0.00705754
-0.0380324
-0.007337543
-0.03629317
-0.00741158
-0.03456384
-0.007541877
-0.03260982
-0.008298036
-0.03075939
-0.008042575
-0.02874477
-0.008605038
-0.02670534
-0.008796825
-0.02465848
-0.008828635
-0.02257579
-0.008893181
-0.02043101
-0.009287939
-0.01827611
-0.009308784
-0.01607551
-0.009418017
-0.01387068
-0.009510597
-0.01159092
-0.009553676
-0.009443929
-0.009238807
-0.007157039
-0.009706529
-0.004877478
-0.009606792
-0.002658785
-0.009533731
-0.0003633973
-0.01014715
0.001987327
-0.01043037
0.004319841
-0.00999251
0.006561102
-0.009732343
0.008787579
-0.009585346
0.01097962
-0.009411006
0.01315961
-0.009407415
0.01528394
-0.009160327
0.01749057
-0.009379258
0.01958704
-0.009046341
0.02160263
-0.008658555
0.02365269
-0.008758323
0.02565
-0.00856227
0.02758385
-0.00829095
0.02952188
-0.008291664
0.03139959
-0.008068934
0.03311836
-0.007405008
0.03485017
-0.007410012
0.03650648
-0.007165742
0.03807284
-0.006682845
0.03965578
-0.006742566
0.04106156
-0.00604029
0.04243083
-0.005800017
0.04365795
-0.00528602
0.04478621
-0.004791615
0.04593397
-0.004820155
0.04692869
-0.004291238
0.04787616
-0.003920245
0.04865757
-0.003349382
0.04936445
-0.002916621
0.05000949
-0.002605504
0.05045038
-0.001836293
0.05090686
-0.001758091
0.05122971
-0.001155168
0.05123641
0.0001662053
0.05107902
0.00109161
0.05079227
0.001913867
0.05042796
0.003066979
0.04993761
0.005166477
0.04968576
0.007934724
0.04912108
0.01134962
0.0476914
0.01299218
0.04882539
0.0211491
0.0514892
0.04174214
0.05008821
0.04153651
0.04641322
0.0123403
0.04348175
-0.01273984
0.04126783
-0.01712815
0.03884249
-0.00689121
0.0358997
0.003677548
0.03116341
0.01049481
0.02294498
0.01382538
0.01166826
0.02564698
0.001094409
0.04277328
-0.005980096
0.0357495
-0.01168504
0.02147876
-0.0132257
0.002664243
-0.01010457
-0.01318428
-0.004843149
-0.02329196
-0.0008045316
-0.02257218
0.001428719
-0.01655529
0.002700573
-0.01095925
0.00478004
-0.009662419
0.006461211
-0.004795368
0.007114289
0.0005313322
0.006717722
0.003598192
0.00572782
0.005559839
0.005040994
0.007371757
0.003299674
0.01077966
-0.0009413726
0.01430923
-0.004365226
0.01270238
-0.004004623
0.00246175
-0.002191884
-0.006082517
0.00027864
-0.01055608
0.003475883
-0.01356643
0.007144662
-0.01528305
0.01131712
-0.01694619
0.01528171
-0.01691132
-0.01406546
0.02595041
-0.02287646
-0.01441681
0.02810929
-0.01048071
0.02925551
-0.005733976
0.02938044
-0.0007176685
0.02860202
0.004235561
0.02718511
0.009260192
0.02569537
0.01457981
0.02509018
0.02067534
0.02347731
0.02094224
0.0196544
0.01334767
0.01520216
0.006677387
0.01154762
0.004927662
0.008905702
0.004836352
0.006807217
0.005165653
0.006522214
0.002711411
0.006672505
0.001623976
0.008735907
-0.0123626
0.01328301
-0.02999422
0.01847882
-0.03090441
0.02192867
-0.01903126
0.02079166
0.002308552
0.01377696
0.02655071
0.004878258
0.04153981
-0.007249492
0.06313685
-0.02364225
0.06024296
-0.03762467
0.0336082
-0.04594386
0.02394563
-0.05086323
0.01694932
-0.05504632
0.009044291
-0.05915145
-0.003030479
-0.06419859
-0.01188851
-0.07006095
-0.005094275
-0.07300898
0.02079885
-0.06905723
0.040161
-0.06329228
0.03344889
-0.06328338
0.01900294
-0.06479018
0.01488392
-0.06512052
0.01187241
-0.06545519
0.008276871
-0.06600848
0.005655437
-0.06640485
0.003409124
-0.06657686
0.001900622
-0.06685805
0.001285424
-0.06662426
-0.0001313714
-0.0665676
-0.0001838762
-0.06602244
-0.002381506
-0.06537087
-0.002789523
-0.06473993
-0.003040005
-0.06373304
-0.004018067
-0.06298582
-0.003675244
-0.06187787
-0.004844762
-0.06077541
-0.00515571
-0.05939148
-0.006176413
-0.057921
-0.006517741
-0.05652982
-0.006475279
-0.05493799
-0.007364431
-0.05317822
-0.007767693
-0.05151297
-0.007649696
-0.049649
-0.008659438
-0.04769016
-0.009016372
-0.04560059
-0.009427115
-0.04349477
-0.009517402
-0.04152158
-0.009515068
-0.03908973
-0.01072989
-0.03692468
-0.01020763
-0.03443292
-0.01109679
-0.03205259
-0.01117715
-0.0295963
-0.01128493
-0.02706234
-0.01142714
-0.02454112
-0.01180916
-0.02193587
-0.01191403
-0.01929364
-0.01206024
-0.01670486
-0.01209938
-0.01390722
-0.01235132
-0.01140146
-0.01174457
-0.008589045
-0.01251895
-0.005828034
-0.0123678
-0.003156315
-0.01220545
-0.0004015392
-0.01290193
0.002423974
-0.01325588
0.005142615
-0.01271115
0.007798142
-0.01238787
0.01050489
-0.0122921
0.01316341
-0.01206952
0.01578486
-0.01202886
0.01830625
-0.01168172
0.02102514
-0.01209815
0.02352269
-0.01154389
0.02594699
-0.01108285
0.02839249
-0.01120383
0.03079904
-0.01096881