/*--------------------------------*- C++ -*----------------------------------*\
| =========                 |                                                 |
| \\      /  F ield         | OpenFOAM: The Open Source CFD Toolbox           |
|  \\    /   O peration     | Version:  2406                                  |
|   \\  /    A nd           | Website:  www.openfoam.com                      |
|    \\/     M anipulation  |                                                 |
\*---------------------------------------------------------------------------*/
FoamFile
{
    version     2.0;
    format      ascii;
    arch        "LSB;label=32;scalar=64";
    class       volScalarField;
    location    "4.08";
    object      p;
}
// * * * * * * * * * * * * * * * * * * * * * * * * * * * * * * * * * * * * * //

dimensions      [0 2 -2 0 0 0 0];

internalField   nonuniform List<scalar> 
15536
(
-19.0185
-20.35153
-21.84935
-24.2546
-28.09671
-32.36398
-37.30859
-41.15509
-43.77091
-45.1435
-45.65273
-46.28865
-47.14616
-48.11492
-49.32089
-51.26411
-54.4952
-59.14067
-66.10986
-73.83234
-76.79246
-71.53465
-58.44451
-43.43108
-34.45473
-34.08335
-42.65815
-53.92238
-60.06567
-64.2206
-76.09006
-106.9385
-147.2888
-154.0932
-112.5516
-83.55072
-94.72814
-109.1077
-112.1814
-108.6746
-109.6776
-112.6656
-114.3201
-114.4974
-113.8217
-112.1725
-109.6917
-106.2939
-102.4762
-98.36444
-93.61803
-88.34289
-82.49021
-76.30061
-69.71944
-62.82351
-55.93898
-48.97242
-41.68938
-34.27591
-27.0104
-19.89653
-12.83163
-5.878618
0.8356333
7.401906
13.6609
19.5851
25.0729
30.12671
34.70507
38.81011
42.40731
45.42654
47.83622
49.73705
50.99425
51.66022
51.77741
51.41111
50.29385
48.50823
46.13941
43.1911
39.68135
35.63246
31.11642
26.04456
20.5825
14.78262
8.48854
1.888901
-4.940063
-12.18207
-19.56228
-26.87302
-34.3368
-41.93033
-49.46735
-57.02145
-64.42738
-71.50382
-78.2035
-84.60707
-90.83519
-96.57359
-101.7952
-106.4465
-110.5396
-114.1389
-116.9538
-118.8937
-119.9828
-120.2149
-119.3632
-117.0185
-112.7918
-106.575
-99.96245
-98.08766
-108.0023
-117.8459
-103.1346
-69.54988
-37.1988
-30.54496
-98.64437
-149.9036
-131.0036
-77.65536
-37.22798
-16.92573
-4.378912
6.747558
10.99692
8.981209
6.073246
-4.041445
-13.18357
-15.76996
-13.47534
-12.06121
-13.19174
-18.91543
-27.88569
-34.2991
-34.47855
-31.41866
-33.30099
-27.46512
-16.41258
-8.136531
-1.899368
-5.340519
-10.16417
-13.1074
-16.91173
-18.9131
-20.26382
-21.80435
-24.23634
-28.09607
-32.3708
-37.3123
-41.15906
-43.77525
-45.14663
-45.65243
-46.2854
-47.13953
-48.10482
-49.31044
-51.2543
-54.4862
-59.15171
-66.12666
-73.84619
-76.74977
-71.54254
-58.4444
-43.43616
-34.39493
-34.09293
-42.70979
-53.97875
-60.06669
-64.16091
-76.00085
-106.8771
-147.2598
-154.2051
-112.4509
-83.43215
-94.76824
-109.1383
-112.1687
-108.4849
-109.1144
-111.7744
-113.1347
-113.1607
-112.4301
-110.7577
-108.2725
-104.8815
-101.0785
-96.998
-92.28638
-87.05394
-81.24692
-75.10984
-68.58826
-61.75342
-54.93089
-48.03123
-40.81989
-33.47426
-26.27721
-19.23264
-12.23576
-5.34627
1.30491
7.806953
14.00372
19.8711
25.30689
30.31197
34.84697
38.91398
42.47814
45.47184
47.86006
49.7457
50.99433
51.65705
51.77497
51.41232
50.30473
48.53716
46.19236
43.27346
39.79884
35.7912
31.32116
26.30091
20.89748
15.15602
8.925692
2.397204
-4.364557
-11.5387
-18.8412
-26.07574
-33.46532
-40.98108
-48.44117
-55.91966
-63.25205
-70.25594
-76.8878
-83.23235
-89.40662
-95.09105
-100.2672
-104.8771
-108.9376
-112.5162
-115.3176
-117.2599
-118.3661
-118.6386
-117.8592
-115.6657
-111.7381
-105.8958
-99.71217
-98.07885
-107.8903
-117.8776
-103.4063
-69.78524
-37.42303
-30.41724
-98.81135
-150.1127
-130.8125
-77.42986
-37.06784
-16.86831
-4.438262
6.653837
10.97243
9.051206
6.121191
-4.056661
-13.20209
-15.77952
-13.5005
-12.10012
-13.19958
-18.86776
-27.77599
-34.17479
-34.43448
-31.41788
-33.34758
-27.55212
-16.39911
-8.106273
-1.890293
-5.36924
-10.18638
-13.08868
-16.84513
-18.87161
-20.22841
-21.79355
-24.23876
-28.11445
-32.40382
-37.31965
-41.17977
-43.79521
-45.16267
-45.65923
-46.28319
-47.13207
-48.09264
-49.29087
-51.22948
-54.47115
-59.17825
-66.19058
-73.95224
-76.84765
-71.66165
-58.62335
-43.57632
-34.30663
-34.05458
-42.79231
-54.03677
-60.07724
-64.13015
-75.98141
-107.0393
-147.7099
-154.887
-112.656
-83.38915
-94.41038
-108.2585
-111.0892
-107.9242
-108.4658
-110.8657
-112.1831
-112.2701
-111.5775
-109.9304
-107.4808
-104.1071
-100.3173
-96.26516
-91.56749
-86.362
-80.57927
-74.4752
-67.99182
-61.17362
-54.38009
-47.52208
-40.33753
-33.02249
-25.85796
-18.85234
-11.89302
-5.033588
1.577601
8.050875
14.21412
20.05077
25.45716
30.43477
34.94245
38.98489
42.52701
45.50448
47.87419
49.74829
50.9895
51.64851
51.76749
51.40859
50.30819
48.55521
46.22774
43.32902
39.87817
35.89666
31.45662
26.46241
21.09225
15.38588
9.185521
2.694415
-4.02713
-11.16755
-18.43223
-25.62261
-32.97753
-40.45914
-47.87492
-55.32973
-62.62705
-69.60144
-76.20304
-82.50434
-88.64878
-94.30033
-99.45497
-104.0423
-108.0796
-111.6424
-114.4219
-116.3351
-117.4091
-117.6565
-116.8354
-114.5561
-110.6811
-105.152
-99.45165
-98.0877
-107.9911
-117.8068
-103.1191
-69.8343
-37.23997
-30.10807
-100.0558
-151.5613
-131.2825
-77.50544
-36.94943
-16.81016
-4.554328
6.459715
10.88404
9.034512
6.012765
-4.21115
-13.32074
-15.86349
-13.57331
-12.19771
-13.2474
-18.87849
-27.77809
-34.23879
-34.64168
-31.6698
-33.47193
-27.74625
-16.49435
-8.007053
-1.771656
-5.25277
-10.19226
-13.20463
-16.87478
-18.79694
-20.18012
-21.79225
-24.25333
-28.15205
-32.45463
-37.35023
-41.22187
-43.83926
-45.19979
-45.67864
-46.28655
-47.12434
-48.07152
-49.25379
-51.1864
-54.4559
-59.23722
-66.33188
-74.18597
-77.06368
-71.88811
-58.95898
-43.84183
-34.09694
-33.84638
-42.77561
-53.99151
-60.02805
-64.1142
-76.0282
-107.3107
-148.1775
-155.6708
-113.5597
-83.93284
-93.95494
-106.5435
-109.1722
-106.914
-107.5094
-109.5555
-110.6503
-110.4953
-109.7559
-108.0898
-105.6789
-102.3345
-98.56861
-94.57373
-89.94831
-84.81937
-79.10922
-73.07994
-66.68107
-59.94654
-53.23106
-46.46213
-39.37644
-32.13832
-25.05245
-18.13211
-11.25602
-4.468733
2.062087
8.467032
14.56249
20.3416
25.69026
30.61488
35.07626
39.07958
42.5875
45.54118
47.88451
49.74438
50.97698
51.63182
51.75261
51.39748
50.30373
48.57124
46.26845
43.39923
39.98516
36.04752
31.66026
26.71495
21.41144
15.77133
9.634631
3.228355
-3.414368
-10.48611
-17.65242
-24.74976
-32.02236
-39.40577
-46.72529
-54.088
-61.29147
-68.16335
-74.66483
-80.89089
-86.95864
-92.51904
-97.59886
-102.1063
-106.0941
-109.6169
-112.35
-114.2312
-115.3051
-115.5875
-114.8683
-112.7914
-109.1707
-104.0801
-99.02876
-97.9153
-106.9176
-115.3738
-101.2385
-69.27925
-36.59587
-30.00425
-102.4029
-153.8647
-132.2196
-77.82617
-36.86294
-16.71609
-4.62955
6.237467
10.86823
9.060529
5.725015
-4.56691
-13.55575
-16.04717
-13.71477
-12.37773
-13.34151
-18.9376
-27.84685
-34.29379
-34.98625
-32.16212
-33.27844
-27.75949
-16.68616
-7.851542
-1.590562
-5.016642
-10.18056
-13.36643
-16.84285
-18.7591
-20.15163
-21.81909
-24.28842
-28.2215
-32.53527
-37.42174
-41.30827
-43.92906
-45.2769
-45.72756
-46.30387
-47.1195
-48.04308
-49.19806
-51.1194
-54.44174
-59.34985
-66.59599
-74.61454
-77.47552
-72.28659
-59.40678
-44.14778
-33.78338
-33.41027
-42.53752
-53.6325
-59.87513
-64.19377
-76.1869
-107.5646
-148.4779
-155.8896
-115.0016
-85.80626
-94.1592
-104.8276
-107.1732
-105.7374
-106.4358
-108.2696
-109.293
-109.1727
-108.4659
-106.7831
-104.3962
-101.0503
-97.25216
-93.31444
-88.68524
-83.59532
-77.90083
-71.9197
-65.58468
-58.87485
-52.21028
-45.52485
-38.50243
-31.31134
-24.28888
-17.45008
-10.64519
-3.911113
2.540688
8.889788
14.92127
20.64201
25.9282
30.80351
35.2175
39.17894
42.64439
45.5709
47.8847
49.72774
50.95147
51.60202
51.72536
51.37225
50.28241
48.57857
46.30847
43.47288
40.09825
36.20471
31.87229
26.97354
21.74308
16.16462
10.07595
3.76017
-2.803769
-9.83571
-16.91616
-23.92246
-31.13642
-38.45229
-45.68168
-52.99483
-60.13939
-66.94973
-73.39628
-79.56324
-85.60255
-91.10886
-96.17248
-100.6528
-104.6188
-108.1721
-110.8643
-112.7496
-113.8251
-114.1219
-113.3361
-111.2263
-107.7254
-102.9671
-98.46676
-97.42425
-104.4135
-110.5128
-97.21209
-68.44792
-36.54272
-31.57938
-105.1774
-156.6818
-133.6483
-78.38857
-36.81485
-16.59125
-4.612039
6.129691
11.12231
9.314081
5.344638
-5.113485
-13.96523
-16.39348
-13.96862
-12.70412
-13.50223
-19.08342
-28.04426
-34.46968
-35.4437
-32.60767
-32.51351
-27.3321
-17.00816
-7.724735
-1.409988
-4.87234
-10.22797
-13.54894
-16.88611
-18.74125
-20.13977
-21.88184
-24.35074
-28.3392
-32.65755
-37.55381
-41.45983
-44.08277
-45.4189
-45.82993
-46.34824
-47.1214
-48.00264
-49.11316
-51.01958
-54.43425
-59.53925
-67.01904
-75.34489
-78.18906
-72.96182
-59.99426
-44.50268
-33.51167
-32.7081
-41.9592
-53.02991
-59.61689
-64.4212
-76.35164
-107.0122
-146.9487
-154.1952
-115.9274
-88.68859
-94.83148
-103.1019
-105.1214
-104.2918
-104.9408
-106.4637
-107.2762
-106.8265
-106.0631
-104.4002
-102.1292
-98.82989
-95.06407
-91.27115
-86.72027
-81.75042
-76.14077
-70.24474
-64.01375
-57.381
-50.82678
-44.26691
-37.33425
-30.22678
-23.31535
-16.57847
-9.871318
-3.212185
3.127536
9.405631
15.34717
20.9787
26.1965
31.02318
35.37803
39.28607
42.69301
45.59549
47.87185
49.68984
50.90625
51.55164
51.67728
51.32498
50.24129
48.56879
46.34286
43.55105
40.22471
36.38565
32.11372
27.26267
22.13798
16.64639
10.59744
4.390196
-2.034064
-9.006175
-15.98527
-22.85264
-29.9608
-37.18389
-44.29285
-51.4991
-58.53373
-65.23238
-71.55034
-77.61237
-83.57947
-88.95325
-93.93359
-98.29692
-102.1711
-105.6377
-108.2514
-110.0366
-111.0444
-111.4107
-110.822
-108.8969
-105.6981
-101.4001
-97.51206
-96.51681
-101.5174
-105.475
-93.50488
-68.33525
-38.52921
-36.2428
-108.067
-159.2962
-135.2048
-79.09463
-36.86672
-16.41728
-4.398193
6.280529
11.79644
9.948902
4.950852
-5.857428
-14.65288
-16.98387
-14.39641
-13.25063
-13.74334
-19.33496
-28.43009
-34.7996
-36.0017
-32.89634
-31.36209
-26.53345
-17.59502
-7.801074
-1.394994
-5.019073
-10.40012
-13.75073
-16.93925
-18.76692
-20.15665
-22.01754
-24.51326
-28.54253
-32.8335
-37.76306
-41.69829
-44.34008
-45.66581
-46.01734
-46.4505
-47.13589
-47.94369
-48.98614
-50.87028
-54.4121
-59.77602
-67.59125
-76.50912
-79.34672
-74.07125
-60.79744
-44.98141
-33.60193
-32.17795
-41.3879
-52.25673
-59.30785
-64.74341
-76.35884
-104.6966
-140.7905
-147.6321
-114.8097
-91.29377
-95.25777
-101.2228
-102.9825
-102.7029
-103.3317
-104.6217
-105.3942
-104.8535
-104.2769
-102.3777
-100.1199
-96.80557
-92.97286
-89.28952
-84.72788
-79.878
-74.29157
-68.41638
-62.32052
-55.81259
-49.32523
-42.828
-36.03714
-29.06456
-22.23556
-15.5456
-9.01685
-2.428366
3.774647
9.982562
15.79839
21.34155
26.55316
31.27271
35.53631
39.36995
42.72137
45.64905
47.84285
49.63013
50.83774
51.47264
51.60058
51.26298
50.19632
48.51638
46.32515
43.59102
40.32992
36.58398
32.39339
27.56652
22.55579
17.20499
11.24185
5.080368
-1.234138
-8.03664
-14.92682
-21.69497
-28.67312
-35.71516
-42.78213
-49.90743
-56.76705
-63.3967
-69.57055
-75.53764
-81.4771
-86.72362
-91.68609
-95.94908
-99.81834
-103.3599
-105.9169
-107.7714
-108.9412
-109.262
-108.5843
-106.6965
-103.7064
-99.7749
-96.40882
-95.36318
-98.67057
-100.8266
-89.91409
-68.58176
-42.58217
-43.28961
-111.0521
-160.0651
-136.2798
-79.76957
-37.11477
-16.34392
-3.808029
6.819371
12.86041
10.93199
4.543567
-6.895378
-15.76936
-17.96629
-15.12422
-13.94606
-14.12428
-19.66282
-29.03616
-35.34992
-36.67049
-33.12032
-30.24457
-25.68126
-18.65058
-8.336705
-1.839763
-5.564219
-10.75514
-14.01371
-17.07659
-18.90867
-20.28056
-22.31064
-24.86795
-28.87187
-33.17707
-38.03321
-42.05975
-44.67889
-46.03487
-46.34241
-46.63647
-47.16935
-47.85778
-48.78489
-50.60274
-54.29046
-60.0408
-68.55903
-78.18004
-81.12099
-75.83181
-62.02692
-45.86757
-34.37222
-32.07268
-41.2306
-51.47174
-58.84184
-64.87215
-76.49908
-100.7362
-129.707
-136.1619
-111.4989
-92.85614
-95.04013
-99.08811
-100.4649
-100.6174
-101.1382
-102.0828
-102.9042
-101.7733
-101.0505
-99.40937
-97.26546
-94.20747
-90.10685
-86.6379
-82.21678
-77.55388
-71.93102
-66.14284
-60.42143
-54.08268
-47.34208
-41.0298
-34.64573
-27.84075
-20.83001
-14.27148
-8.150858
-1.531211
4.453143
10.63547
16.20861
21.84517
27.05739
31.51462
35.65933
39.39165
42.73095
45.70309
47.75129
49.55657
50.73845
51.35761
51.49899
51.19458
50.10819
48.42368
46.22836
43.56332
40.37745
36.74513
32.74965
27.90897
22.98295
17.80003
12.15532
6.059616
-0.5052532
-7.003926
-13.51939
-20.4288
-27.3293
-33.9112
-40.81019
-48.23785
-54.62159
-61.25771
-67.24643
-73.02574
-78.96201
-83.94163
-88.94597
-92.94194
-96.67325
-100.2566
-102.6417
-104.3626
-105.208
-105.8101
-105.3555
-103.6369
-100.9878
-97.46722
-94.7252
-93.72467
-95.61028
-96.18023
-86.12868
-68.93446
-47.95741
-51.07883
-112.1814
-157.0804
-133.9886
-78.93902
-37.38725
-16.54229
-4.07248
7.408348
14.03169
11.93462
4.02071
-8.370732
-17.57846
-19.95142
-16.50798
-14.57915
-14.8919
-20.26907
-30.07803
-36.33779
-37.6636
-33.40722
-29.34185
-25.43973
-20.56615
-9.715454
-3.037608
-6.523867
-11.33445
-14.36234
-17.35075
2.922823
2.329689
-40.73047
-20.77535
10.49228
-16.34579
2.81789
0.5461762
8.311858
0.6093501
-1.194014
0.6404396
1.632656
1.896565
2.347805
2.610922
-2.954317
-0.6070313
1.228034
0.1550379
-76.91305
2.570474
1.955477
0.4771256
2.83751
2.761485
-0.858513
0.8359772
-4.031163
1.508168
1.180586
-25.98024
1.937828
1.715687
2.03037
-2.011544
-12.75833
0.3425414
1.391702
-2.908255
-17.13578
2.974688
2.264594
4.724938
31.48443
2.621545
0.2870678
2.49493
-22.66655
0.8993415
1.807589
-4.514124
-12.76997
1.377102
0.5952332
20.19432
-2.17173
2.371399
-8.962687
-13.90036
0.8800122
0.07239225
-23.23081
1.770773
-6.259165
2.808109
-37.03988
0.5910231
1.719828
1.896463
1.612323
0.5013925
22.68132
-31.61281
22.52243
0.8955205
4.699317
-0.1730267
-3.525173
1.619474
-14.2202
0.5985197
3.348112
2.111291
-7.500635
2.879998
2.104859
0.1153137
-55.966
-1.424635
-13.83775
23.96396
-4.678043
1.935366
3.134145
0.8811072
-30.39603
6.764701
-61.75028
3.277441
0.498133
0.1763495
2.178926
-77.743
0.2176325
-21.8471
-8.760424
2.686795
-6.125654
-38.87302
0.2108045
2.887507
3.964204
8.030777
-26.21052
0.8003381
0.9840775
1.506831
22.45463
2.379129
1.121302
1.033452
1.465204
2.554882
2.224937
-8.724386
2.242258
-50.1273
3.120584
2.643453
0.6333599
-0.4992876
1.919206
2.491125
1.628064
-9.074267
0.3991715
4.42865
0.7590009
1.077904
-48.2415
2.059547
-56.56695
2.398644
2.629964
-17.62947
-0.3557902
-39.78223
0.8499383
1.713367
2.27506
-23.6973
-24.20198
0.2257875
-9.359098
-64.50264
1.500463
1.862892
1.669982
-17.50276
2.233922
-12.7205
-5.93272
-1.033684
2.630094
-19.6972
-16.88468
2.756134
-37.77363
1.456701
2.967542
18.92514
4.50035
-53.35708
-4.170707
-2.436219
2.111352
3.012189
-74.52431
-11.59211
15.127
0.3414129
1.608416
2.173294
5.307545
-39.67815
2.825142
0.8601944
-16.49427
1.4753
2.015253
0.8101049
-5.934897
0.1177377
3.226331
2.687493
2.118766
2.054816
-1.746027
-27.12499
-0.06963083
-12.11034
2.613174
-61.32167
1.893647
-1.671643
-4.200056
-1.467444
-5.704239
3.916549
2.019763
3.14632
-8.445499
-3.634701
2.099522
-10.19288
-7.959304
0.3191943
7.122093
1.33753
2.074593
-12.49923
2.996179
-4.81848
-0.8170035
-1.194018
3.0393
8.476446
1.664209
17.26431
-1.287864
-55.29076
1.914164
0.7801359
-62.73785
1.706034
24.37616
-9.09303
3.18724
1.972735
2.391627
1.33103
1.015457
-11.44013
1.128336
-19.12298
2.46381
-50.69278
1.324482
2.243145
-24.70042
2.352004
-0.2401738
0.3013774
3.307654
-19.18897
2.596955
0.9765613
-44.88544
-2.612139
-7.613403
0.5357583
-20.61844
0.9258171
1.606961
2.238313
2.689932
0.795831
11.25182
-20.40988
1.48893
1.813
12.62653
1.418572
2.714901
3.381069
1.552844
-34.70015
-62.48687
2.155414
2.815426
2.322832
-14.58819
1.509109
2.357915
2.115491
37.05831
1.986226
1.931786
2.187418
0.4847111
0.7434862
2.848502
2.798358
-43.73571
2.164956
-19.06755
1.144496
2.710418
1.841852
-35.25991
1.429935
0.4123526
-35.43329
1.646349
0.4272918
2.103862
2.28032
2.274453
0.4766911
6.777095
-0.9061494
1.65591
2.605487
1.626546
-8.711557
34.34196
-44.0432
-59.39647
-76.30732
1.404852
2.935428
-0.7120246
3.283946
0.3389166
0.2944842
1.509535
-5.401806
2.333772
-4.635724
19.06273
-3.286401
-4.581766
-42.0184
2.250787
1.695739
1.230412
3.319487
-0.9199203
2.541621
-53.68083
2.827048
2.489918
-0.3449398
-9.432194
5.493871
-43.61643
1.907583
-7.467218
0.9476002
1.427565
1.656948
12.67186
1.662524
1.920354
-63.80231
-46.80252
3.100282
1.697325
3.190774
2.890743
-4.059015
-10.11693
2.503509
0.3598006
1.963518
1.376737
2.497526
1.10573
1.248159
-0.5508084
11.85419
-31.25225
2.124196
2.04294
2.441604
2.427653
1.712931
3.35192
0.6776052
2.490098
1.536131
0.3535668
-16.3127
0.2615489
2.77177
2.749268
38.93245
2.530753
2.525143
-1.804563
2.401625
3.582908
-59.17575
0.4147326
1.216777
2.50135
-3.017097
2.073597
2.226486
2.191592
0.03269176
-22.56618
-11.82724
2.636115
0.6516786
-43.55694
-46.3403
1.513249
2.301071
1.890847
1.000948
1.990664
0.7245779
2.004809
1.396741
3.695378
-8.919307
1.559884
-16.95373
-0.2080012
0.8983603
3.630035
1.627344
1.894453
-20.18019
1.766823
0.7059557
-35.10597
-14.30684
-21.02357
2.575281
3.056118
1.996414
2.775332
2.64791
1.230201
-2.94079
0.869164
0.2243884
2.626129
1.586232
-0.6511747
1.917202
-1.766451
2.070687
0.6076908
4.084107
2.54819
1.636694
0.3534051
-55.89681
2.556904
-12.46953
1.832099
2.646214
2.972277
4.742252
2.114187
-16.49209
2.73254
-43.03468
-0.5393236
1.844452
2.436701
1.658114
27.65684
1.914558
3.099885
0.565576
-7.171282
1.020516
1.698441
7.703608
-10.26464
-10.78883
-20.42164
-43.00544
2.259223
2.358794
-6.185416
2.974285
2.080973
2.303481
3.47792
2.037634
3.076342
16.19053
2.603855
1.242311
0.5660469
-19.15436
-1.999569
4.838674
-14.60143
1.133476
2.159263
4.516912
2.241164
4.038976
0.7510061
2.440841
2.412154
-2.184366
3.11713
2.043149
0.5049001
-0.1022105
-13.26224
-11.31445
-17.00673
1.320789
12.47232
0.3709218
2.506628
1.805401
2.290368
1.799356
1.829867
1.55296
1.221687
1.520387
-6.187215
2.818031
2.76188
1.66384
0.7489318
5.000673
1.56273
2.086658
-21.75899
-4.072503
-16.04278
0.8387523
4.397972
5.106746
3.986097
1.651989
2.450133
1.075365
5.371006
2.121594
2.151324
3.485381
-63.86408
2.711766
4.575975
2.640028
2.22535
8.939228
1.907142
8.828288
0.6879458
-1.142088
1.219249
1.843437
0.1044565
14.68483
15.79153
-8.180639
2.250157
2.447794
2.34709
2.675039
1.009844
2.27899
0.9796317
4.950781
29.66608
-5.740957
1.878466
2.814221
-1.066824
-55.99718
2.01343
3.002529
2.849034
2.517488
1.960168
-0.9690863
-2.572512
1.108658
5.916367
0.2367896
-1.524999
-18.23209
1.905033
2.189144
-70.38034
-1.320705
1.30873
-24.1984
3.227008
-0.8190649
2.143641
1.531805
1.142808
-66.16681
2.360693
2.222075
1.99872
-2.795426
1.677371
0.8051365
3.739718
-20.93506
-10.6252
2.496905
-25.53937
0.4476461
5.615365
1.620493
-39.80532
2.332398
8.582239
-11.63764
1.536693
-2.171453
-0.1886024
3.630694
4.921283
-2.116745
1.00608
1.206055
2.900873
17.8998
3.255482
1.739727
1.695806
-0.1367283
-2.214388
-14.16764
-10.62638
-10.07552
-22.4591
-5.061225
-11.52084
0.4770137
1.400277
2.466671
1.95761
1.524665
2.437844
-3.281067
1.846113
2.471871
2.756501
-18.82278
3.40067
25.40636
4.072906
-34.21269
-7.619894
18.66059
7.497622
-0.4446912
-29.85533
2.20982
0.9412326
-18.49835
-0.3238661
-0.2520931
2.060063
3.060406
-0.119498
0.3240084
-22.84317
1.436094
2.769225
-4.118811
2.111824
2.286011
-71.50884
-1.434891
1.844147
1.879569
-58.29335
0.8698195
1.842068
8.604171
14.8076
12.3789
2.617945
-19.04461
2.36644
-2.864822
1.751442
-0.2527415
3.081829
2.041393
-24.9608
1.146358
-24.15072
1.585913
1.595427
2.759208
-19.97223
2.904791
0.6098913
-0.4989353
0.5609896
-7.347822
-2.946297
-4.727669
4.962443
-13.33321
1.535601
1.730868
-25.75141
-7.494908
2.455238
2.108399
1.95662
1.199187
-5.317987
1.983368
1.037781
-26.77831
1.731149
0.5970154
2.879596
1.374521
1.84511
1.863065
1.860371
0.1150058
2.472242
-22.1886
2.24194
1.967324
0.4505921
0.6936909
1.538809
2.347751
1.711497
3.125244
2.835251
3.433479
-41.87839
0.2985155
0.4072178
2.214454
2.33926
1.934168
5.007708
1.721764
-46.40218
2.590706
-1.329537
6.836221
0.08440865
-10.93018
-6.89592
-23.96958
2.342636
-99.23467
1.101296
-11.7586
-20.29538
-2.61774
-1.662822
-1.124136
1.89562
14.16719
3.038815
2.855739
-78.22776
3.362803
1.009613
1.630659
-6.64285
22.5038
7.421559
2.394143
2.230528
0.311651
1.567846
2.07626
1.172865
2.611172
2.49559
0.9613633
2.307443
-2.919593
6.968805
0.9997408
2.342526
2.315644
2.461252
1.732392
1.261341
10.84521
30.84629
2.333111
1.643878
2.509209
2.362939
2.45664
1.19393
-38.53796
2.299699
-46.23491
-6.381742
1.680937
-12.81966
1.780611
-7.775597
2.156308
2.376714
2.218123
2.35163
-9.267171
-57.88235
1.366816
0.9822249
-1.011518
1.284814
1.161792
2.034717
-19.21921
-1.075795
14.30013
0.5729048
2.374488
1.83157
1.629711
3.044583
-0.5727619
1.330903
0.009609118
-12.40533
2.696231
9.079712
-17.06431
2.626479
3.240987
-5.398919
2.030394
2.201917
1.996193
-1.32268
-0.7162364
0.8961272
2.655341
1.623879
1.812747
3.857857
1.646456
-6.965296
31.56745
2.000626
-0.1336838
-0.7771811
-75.17923
0.7075662
2.070154
2.607125
0.6423821
33.51529
1.745814
2.352303
0.2091218
2.74993
-19.39589
0.839803
1.758177
1.893183
-24.58056
-11.54919
1.88938
-2.18057
-66.66724
1.944386
1.635912
2.299271
-8.95645
5.256617
30.78858
2.394968
0.9362717
1.380977
3.655341
3.970358
8.884111
0.588998
1.73424
2.172525
1.564493
0.8132712
2.032879
-1.315636
-8.163376
-31.27693
-31.04493
3.118027
-3.987252
2.161399
3.158396
2.372249
2.091583
-10.82052
2.552885
-3.500626
11.28568
-14.19157
4.912108
3.168246
2.643137
-10.45575
26.61593
-8.45922
0.6756405
-2.383576
-20.63084
0.841273
1.537617
2.264694
2.312035
1.849858
-36.80113
-4.158563
2.884466
-22.15589
-14.27597
0.6703058
-33.79414
-22.89278
-51.24338
2.927964
-36.52744
3.653393
1.728502
-20.18775
2.522957
0.7613021
-23.04829
0.05053125
1.812914
2.0254
0.6799213
2.36744
-35.83576
-21.85029
-0.1510235
15.55724
2.188712
-9.299565
-22.17976
18.60455
-43.91991
0.522193
2.330001
0.3667942
-13.93879
0.7495276
-4.334463
1.630219
2.564197
-0.3721351
-50.99816
-60.2143
3.04309
3.270143
2.888675
2.051449
0.7773747
3.230417
1.88355
1.461249
0.9933368
1.098034
1.163718
1.714186
1.958709
-13.08195
2.375003
2.728269
-26.06868
2.584784
2.123502
-1.99803
-22.08089
3.802802
-0.4396383
0.39535
-14.47828
-43.01362
33.97567
47.66016
3.187173
-0.04457811
-3.91726
5.7748
2.553566
1.398514
12.28821
-27.57104
2.81382
2.229035
1.19728
2.796063
2.499181
-4.211004
1.065803
-25.46484
-55.05594
3.236089
1.867196
2.830991
2.954395
2.081668
-11.29397
2.253408
1.939053
2.643418
-0.424216
-2.71073
3.082882
-44.10951
-25.52705
2.588123
2.41373
2.332145
3.001372
-17.17065
2.689386
1.01977
-75.46273
2.12349
-54.13012
-7.793795
1.736821
1.336163
-44.91363
-70.28927
0.06053298
3.066377
2.904864
1.509068
-0.8243947
-2.33927
2.092905
2.384736
1.902022
1.797729
2.244552
0.4738355
1.874301
1.808259
0.4850097
1.414122
1.27675
-0.1948777
-0.6251787
1.467233
0.8772356
-6.823327
0.1220603
2.185758
3.847857
0.1477581
1.302497
-4.608106
0.5335709
-1.306152
-36.45678
-23.61166
1.497574
2.263566
1.217872
1.48836
-24.01108
-8.506081
0.2734049
-27.55867
23.95846
1.134294
4.144777
-11.56905
-16.86393
0.7178435
4.039876
-74.61024
1.966633
2.334578
-8.187667
3.477218
4.917202
0.3097213
3.014717
5.952939
-1.783166
-55.33845
1.624548
-9.643561
36.09736
-9.055428
-4.242374
1.934191
2.169578
3.102624
8.492591
2.425176
8.375116
-0.6646045
-3.335253
-9.351435
-8.563889
-0.3611188
1.723159
-21.16099
0.9439106
-68.09236
8.308298
0.9260927
15.14179
2.135449
30.52861
-6.214896
1.329973
1.66437
-0.5219064
15.82034
-20.66202
-100.6416
1.707658
2.111812
2.14502
2.35256
0.6129072
-10.84344
-4.496296
1.615914
-37.22033
2.913902
18.73633
-63.92943
3.266921
-64.26173
-17.47267
-4.358392
-41.4689
38.77655
2.433087
2.307321
-33.92413
3.029176
2.10722
-1.270865
1.528518
-20.87498
-67.22233
-9.457976
2.28566
1.589191
3.014155
1.77829
1.893332
1.310552
5.429161
3.151218
0.9261031
2.31244
2.068426
-4.326911
-39.11842
0.7825871
0.3688461
0.8331067
-46.55003
0.4224112
2.51228
1.629374
1.458891
-43.33936
2.715234
2.266754
1.755111
2.33069
1.936143
-14.70465
1.604032
2.213452
-46.03242
25.61596
-0.04615187
2.38373
3.377831
0.559658
2.625767
2.253662
2.227817
2.06449
2.202588
-19.2098
1.300549
-12.3388
2.096835
3.026307
2.870202
3.171491
1.202988
2.236435
-7.51008
-7.468597
-52.94821
-18.71388
1.917577
1.727468
1.355883
4.103549
2.307817
-35.07711
1.229267
2.110375
0.8842998
-9.60892
1.665871
-7.063268
3.633982
-61.00197
1.050494
1.835875
1.67638
-70.25346
1.630059
-30.28429
1.841854
1.702029
1.716129
1.84483
2.702046
-30.23741
-10.61589
1.474629
1.727778
-16.40359
2.537885
2.911857
2.889192
3.514887
-0.4867179
1.244336
1.516865
-69.88102
-2.26554
-3.267403
2.281341
3.044921
1.039163
2.012623
2.0744
2.579072
-11.01359
2.031321
6.111126
10.6234
3.051384
-9.831978
2.252453
-3.02062
0.5886442
-26.97682
0.369265
-0.4612371
0.3224514
-14.38055
8.268801
-44.32652
1.666111
-33.28995
1.302931
-8.108387
-0.8475296
0.3847629
16.8274
2.728953
10.3741
-71.18339
2.649659
2.951493
0.34456
2.758345
3.171835
2.799057
-3.542634
-3.350364
2.437875
-12.47376
1.669232
2.226725
2.778297
1.631269
0.8913635
2.541275
-7.586757
2.378948
2.23833
-15.82352
0.0005681994
2.273241
0.2681132
1.75587
-1.013656
-4.001599
-1.990633
-13.45408
-1.673177
-0.6572239
-16.29792
-5.66628
-0.6210357
4.875199
0.6666303
11.21856
-49.88467
-19.10212
1.759837
1.515805
18.20914
-0.0537759
1.955214
1.550871
-1.680502
2.411493
-50.53335
-25.91171
-15.53361
12.77695
9.886754
1.580163
-39.83097
-41.92189
-64.31876
2.896851
-3.566463
-0.6107002
0.4132729
1.615673
0.9515393
1.930657
2.034543
1.862785
2.411098
2.024147
1.758553
-23.60953
2.100574
0.6944687
1.474816
-14.55362
20.22825
1.012306
-28.96654
-32.42847
-7.880942
8.425174
-2.969669
-7.237197
-9.78549
-56.12794
0.7638835
-55.42274
2.372035
-50.73274
-21.84288
0.396659
2.981584
-23.08486
2.348963
14.93939
1.263893
2.090228
2.813655
0.9903727
2.913512
2.181944
1.956782
0.8063011
3.140179
-28.56494
2.707053
2.556822
-5.264255
2.31834
2.177915
-15.57002
-9.633015
-42.82196
-0.1079244
1.678403
23.07779
1.189808
2.310394
-39.07098
-0.8359589
-51.49617
-1.152202
2.249395
2.168129
2.312136
-3.205045
3.050243
1.958363
0.6679671
1.337709
1.888764
1.563429
21.31784
3.577699
-17.21324
5.647191
-20.13599
1.723737
-75.26327
1.860066
1.777008
3.299658
2.684868
1.960487
-49.91309
-35.93268
-37.55438
0.2831868
-0.6689949
-3.589545
1.585771
-8.899283
2.634968
2.497445
-11.93113
-31.69001
3.071323
-72.66977
1.911107
-3.538784
1.282434
-9.15944
10.51779
1.692651
0.1240076
3.383405
2.577841
1.155589
16.79456
-0.1142918
-9.914933
1.745917
2.48523
1.409176
2.312365
-3.624114
1.174561
-2.286715
-7.314352
1.312933
0.6079782
-16.78412
2.772591
1.937846
-4.087301
-2.016833
1.648352
1.688818
1.017697
0.5694651
2.62685
-67.15571
27.51556
-7.534057
2.299822
2.634274
-25.60568
1.071244
1.192177
-4.975456
2.95041
1.604458
2.071085
0.1769364
-55.55972
1.141006
21.5034
34.72235
2.84135
-2.644112
-0.7322381
2.04128
2.365469
2.506668
33.35735
-38.26259
1.995148
1.152699
2.532242
-19.0235
0.8792034
-3.246522
-0.4443067
2.207455
2.526811
-6.247317
2.518826
1.878099
-5.582944
-25.23775
-9.919376
-0.5921029
0.7739235
-72.42295
28.44705
-37.61099
1.710171
-9.932024
-4.184387
1.637763
2.059373
32.57847
3.23149
1.225137
-22.07447
0.3011351
1.453376
-52.99118
3.189746
2.880862
2.090773
1.911913
20.14137
2.508409
3.609882
-0.8152001
-1.10653
-4.936748
20.51304
3.855473
8.282279
-64.31558
-49.57971
2.014212
1.13273
-40.09684
-11.56264
-29.53971
-1.366132
2.280888
2.638511
0.5540487
-27.02741
-12.58584
3.02817
-17.06763
-6.313773
2.848618
1.802531
-1.265935
-50.08099
-14.12265
1.320788
3.699981
0.3121986
1.272297
2.335628
2.350994
2.567845
1.662623
-43.64579
-22.59406
-0.1781099
0.2282225
-10.35204
1.812365
2.124188
-7.397359
4.405518
1.308958
0.8365804
36.41538
2.025983
2.099438
0.8169844
1.149201
-12.99881
-26.18443
-39.95417
13.73547
2.563252
2.082425
2.558933
2.608459
1.176901
2.162682
2.069337
2.956426
1.867119
1.908798
2.387448
0.5762216
12.68404
9.173719
2.503648
1.714442
0.3721447
0.6407092
1.755284
-10.04602
8.478189
-44.25083
-42.44689
1.692565
2.501081
-68.35306
42.76416
-82.85077
1.834787
2.643897
4.870717
-6.610311
9.130341
-18.62069
2.205418
4.320451
1.608342
3.979683
2.324285
2.199851
1.416384
-78.38623
0.9679983
2.309183
0.9032406
2.95271
-49.07432
-53.07003
-36.97069
1.180373
15.18448
1.85646
2.219478
2.494406
1.993202
-37.3653
1.746287
4.009693
31.06623
2.801852
2.785774
2.515371
25.9225
3.282549
0.4315088
3.697422
-7.655895
1.803076
1.035751
-76.52803
1.802229
-67.23008
3.11618
0.7756732
45.69047
-1.337426
1.133959
2.62856
4.217223
2.584052
2.176276
-39.58511
42.79666
3.625066
-1.53523
46.05936
2.343534
1.795988
1.058488
-17.30934
0.5644334
2.038854
-1.506297
2.920687
-12.62784
-34.27573
2.103465
2.156996
2.019136
2.951212
16.60138
0.9531318
2.328891
2.741787
1.804621
1.798515
1.604599
1.635275
2.079058
2.610225
3.100685
-28.89817
-75.35048
-51.9857
-32.04635
-18.60849
1.069258
-0.008466602
1.984847
1.757692
4.464744
-37.38166
-6.795409
27.71712
-17.19419
2.353085
0.6111383
2.50505
-5.706503
-15.00144
0.3170817
3.100601
-79.13697
1.19495
1.316371
-0.2632235
2.595878
1.881063
2.100193
1.572179
2.422211
0.4573415
2.598723
3.58911
-3.746619
1.751761
-0.4646971
0.8192091
-18.17287
-8.892351
1.320979
2.304061
1.920314
-8.856135
-34.52452
3.686884
2.711388
1.041511
0.8264987
8.289447
16.26238
1.842275
1.050346
3.739208
20.60645
-59.76636
-51.79276
1.114117
-11.83483
-3.755467
-1.689891
9.906344
0.4828135
-5.204791
0.7198438
-18.06313
-17.03937
0.7883191
-16.00135
-3.869395
-0.1909803
28.78614
1.559222
-8.936222
1.446094
1.004867
0.9009153
-65.22289
1.800134
2.27587
-21.54957
1.938928
-5.396697
-10.05946
3.18558
4.152559
7.709368
-0.0901573
-56.12686
0.8736333
38.27359
2.118186
7.724181
0.576846
-7.109175
1.640767
1.647484
1.20259
19.26803
2.798232
2.164347
-0.7183737
3.09058
-12.07446
0.6630746
-3.483917
-19.65036
4.28953
-1.756119
38.76739