/*--------------------------------*- C++ -*----------------------------------*\
| =========                 |                                                 |
| \\      /  F ield         | OpenFOAM: The Open Source CFD Toolbox           |
|  \\    /   O peration     | Version:  2406                                  |
|   \\  /    A nd           | Website:  www.openfoam.com                      |
|    \\/     M anipulation  |                                                 |
\*---------------------------------------------------------------------------*/
FoamFile
{
    version     2.0;
    format      ascii;
    arch        "LSB;label=32;scalar=64";
    class       volVectorField;
    location    "0.32";
    object      U;
}
// * * * * * * * * * * * * * * * * * * * * * * * * * * * * * * * * * * * * * //

dimensions      [0 1 -1 0 0 0 0];

internalField   nonuniform List<vector> 
4536
(
(0.008933566 -0.001610726 -1.020318e-23)
(0.01011488 0.000701763 0)
(0.01093562 -0.0008939604 -8.408697e-25)
(0.00820624 -0.001714847 -5.073916e-24)
(0.009364165 -3.984848e-05 -2.615672e-23)
(0.00908834 -0.000321381 1.810982e-23)
(0.01009939 0.0006424753 -7.956737e-24)
(0.01017939 0.0006313934 -1.458621e-23)
(0.01150236 0.0002198789 2.366271e-25)
(0.00976107 0.000720034 4.443263e-24)
(0.01091335 -0.001003942 0)
(0.01119224 -0.0005913824 0)
(0.01007843 -0.001459566 -2.187491e-24)
(0.009808446 0.0004422083 0)
(0.01010222 0.000812996 -1.636648e-23)
(0.01078924 0.0004422737 1.456153e-23)
(0.009915064 0.001187877 1.007065e-23)
(0.01083763 -0.00103451 0)
(0.009536754 -0.0002047229 -3.29919e-24)
(0.008572679 0.002580644 1.035281e-23)
(0.01014822 0.0004144681 7.987628e-24)
(0.01022843 0.0006328409 1.234466e-23)
(0.01132978 -0.0001711712 -9.654416e-26)
(0.0103058 0.001262708 -6.147417e-24)
(0.01148724 -0.0001515068 0)
(0.008740688 0.0003454218 0)
(0.01035313 0.0006544535 5.693766e-24)
(0.01011593 0.0004980887 -3.76257e-26)
(0.008086017 -0.001541715 0)
(0.01098787 -9.100799e-05 -7.031243e-24)
(0.0110284 0.001148619 0)
(0.01092406 -0.0006610168 -4.76525e-25)
(0.009738561 0.0008814662 3.803921e-23)
(0.01093733 0.0003509719 5.526453e-24)
(0.01057493 0.0003300687 3.427896e-24)
(0.009768832 0.0006056365 0)
(0.01003275 0.000520923 -5.658134e-24)
(0.009997417 0.0001644122 0)
(0.01010998 0.0005586147 6.551833e-24)
(0.01093865 0.0004199651 3.115261e-24)
(0.01064099 0.001190853 4.266144e-24)
(0.01119446 0.0005288929 2.532713e-26)
(0.01006039 0.0005338509 0)
(0.008838032 0.001261277 2.071073e-23)
(0.0105594 0.0003929658 5.23465e-24)
(0.008907538 -0.001566019 -6.138089e-24)
(0.0103171 0.001178713 0)
(0.01101858 0.0007657113 0)
(0.01070739 -0.001163664 0)
(0.009688909 0.001026791 -1.770647e-23)
(0.009691117 0.002507916 0)
(0.009259639 0.0008089065 2.229624e-23)
(0.01039668 0.0007445342 9.260034e-24)
(0.01127042 -0.0006618129 -1.024439e-24)
(0.008614576 -8.825522e-05 0)
(0.009801541 0.0004052357 0)
(0.009318975 0.0006003918 3.742069e-23)
(0.0108727 0.0009922718 0)
(0.009539334 -0.0007696102 0)
(0.010659 -0.001090195 1.085465e-24)
(0.00900943 0.002188979 -3.410548e-24)
(0.01069691 0.001283217 5.209964e-24)
(0.01086493 -0.001077441 0)
(0.009978884 0.001272906 2.433419e-23)
(0.01058567 0.000619665 1.938968e-23)
(0.01126008 0.0001492235 -4.548054e-24)
(0.01012107 0.0007563204 -6.399112e-24)
(0.01124845 0.0003902574 4.621734e-24)
(0.01009609 7.452862e-05 -4.179894e-24)
(0.01134026 0.0001266914 -1.742319e-25)
(0.01070558 0.0009782228 0)
(0.009687837 0.0007815112 3.136218e-23)
(0.01138056 -0.000180568 0)
(0.009896536 -0.001491207 0)
(0.01001415 0.0001290906 7.100999e-24)
(0.01142576 -0.0003498961 0)
(0.01144121 0.0008454973 0)
(0.01006598 0.0009856948 0)
(0.009464855 -0.001523947 0)
(0.01112382 -0.0004801423 -7.869296e-25)
(0.01082411 0.001107755 0)
(0.007628322 -6.248892e-05 0)
(0.005830315 0.002114657 3.738322e-23)
(0.01023016 -0.001387982 4.52588e-24)
(0.009468534 0.001216427 0)
(0.01067166 0.001061764 -1.339034e-23)
(0.01053217 0.0007619302 0)
(0.01041423 0.0004814058 -1.527808e-23)
(0.01076865 0.0008494308 0)
(0.008875758 0.002635716 1.189984e-23)
(0.01009102 0.0007626826 7.530824e-24)
(0.009503162 0.0003078323 -1.993408e-23)
(0.009626573 0.0005948514 0)
(0.01116982 0.001201755 1.838608e-24)
(0.01031224 0.0009225087 1.168481e-23)
(0.009970779 0.0004091421 -9.011414e-24)
(0.01152032 -3.254929e-05 -1.486786e-24)
(0.01012533 0.0008434784 2.015313e-23)
(0.009068256 -0.001501011 -8.614432e-24)
(0.01091149 -5.997075e-05 1.652979e-24)
(0.007983772 -0.001713482 0)
(0.01109239 -0.000363434 8.882516e-25)
(0.01088504 0.000391216 0)
(0.009958526 0.0002329869 1.744414e-24)
(0.01017894 -0.00139256 -9.133485e-24)
(0.01091267 -0.001016561 0)
(0.01082667 0.0007425881 -7.551744e-24)
(0.01047306 -0.001198843 0)
(0.01066484 0.001534255 0)
(0.01067421 0.001956688 0)
(0.006601338 0.001442247 -3.366537e-23)
(0.009940491 0.001154707 -6.960898e-24)
(0.01024587 0.0005683166 1.578473e-23)
(0.009580372 0.0007051965 0)
(0.01003466 0.0006543974 2.578924e-24)
(0.01137288 -0.0002303813 4.285443e-25)
(0.009207536 -0.001609717 4.561527e-24)
(0.01035077 0.000597031 9.706701e-24)
(0.009912197 0.0005966964 0)
(0.01108937 0.000308125 8.184079e-26)
(0.01131438 -7.121305e-05 5.087625e-25)
(0.01088625 0.0002243978 -6.900943e-24)
(0.01112686 -0.0004788902 1.833874e-24)
(0.01059466 0.0006081514 0)
(0.01075633 0.001727674 7.977128e-25)
(0.007885601 0.002681634 -1.871731e-23)
(0.009894643 0.0003772187 -1.251282e-23)
(0.0106268 0.0005171772 -8.099535e-24)
(0.01145381 0.0009296279 4.364011e-24)
(0.00969971 0.0004505729 0)
(0.009143938 -0.001585148 0)
(0.01134178 -0.0005193442 6.428539e-27)
(0.008968722 0.0007184625 0)
(0.01027829 0.0005379035 1.579225e-23)
(0.008492092 0.0007411675 6.829663e-25)
(0.01017966 0.0004845355 1.002738e-24)
(0.009856664 -0.001522257 0)
(0.01151267 0.0002762859 1.121862e-24)
(0.01011027 0.0004869911 0)
(0.01089027 0.0004619602 -4.26658e-24)
(0.009974722 0.0002212429 0)
(0.01111142 -0.0003250757 0)
(0.011093 0.0004663741 0)
(0.009764018 0.0006887484 -1.491858e-23)
(0.0102135 0.0004854162 9.734588e-26)
(0.01067886 -0.001052744 -8.675306e-25)
(0.01111517 0.001478249 -1.134826e-24)
(0.01001449 0.002188811 2.732926e-24)
(0.01013494 0.0008256625 -1.250805e-23)
(0.008666418 5.507277e-05 -3.085108e-23)
(0.01026295 0.0006896814 0)
(0.01002071 0.0005067781 1.906119e-23)
(0.01131495 -0.0003541937 -1.987934e-25)
(0.01068055 0.0004210827 0)
(0.009338587 0.0001170605 3.044664e-23)
(0.009345285 0.0006681219 5.873877e-24)
(0.009508832 8.219781e-05 1.58033e-23)
(0.01122402 0.001290939 1.105687e-23)
(0.009983097 0.0009732406 -1.71044e-24)
(0.01130181 -0.000482326 4.170161e-25)
(0.01156333 0.0004629289 0)
(0.01000095 0.0002029961 4.998513e-25)
(0.01135415 -0.0002553034 0)
(0.009841115 0.0004940215 -3.089049e-23)
(0.006884057 0.002894226 2.82674e-23)
(0.01002159 0.0003260134 -2.373211e-23)
(0.0112176 0.0002917858 -3.21655e-24)
(0.01040075 0.0005631593 0)
(0.01103242 -0.0005932833 -2.774917e-25)
(0.008675713 0.002432415 -3.192669e-23)
(0.009552172 3.92973e-07 -3.089415e-23)
(0.009976477 0.0005043851 0)
(0.01059234 0.0002738078 -1.052763e-23)
(0.005719358 0.001822448 4.722884e-23)
(0.01064451 0.0009605816 -2.847774e-25)
(0.009411053 -6.60666e-05 -8.267441e-24)
(0.01155273 0.0004373841 -2.159665e-24)
(0.01020783 0.000587448 -1.788363e-24)
(0.0100921 0.001755875 0)
(0.01064019 0.0006197671 0)
(0.01088374 0.0006214015 -2.991796e-24)
(0.01011892 0.000466253 -4.976125e-24)
(0.007292728 0.0005275546 0)
(0.009805869 0.0001031315 1.289115e-23)
(0.009160072 -0.0002331017 -1.531379e-23)
(0.007939455 0.0005130873 -2.688752e-23)
(0.01110815 -0.0004905112 -1.582039e-26)
(0.01066569 0.0009259253 -1.448875e-23)
(0.01150593 0.0004684417 -2.530428e-24)
(0.01054385 0.0007822162 0)
(0.01135025 -0.0005157055 -4.069124e-26)
(0.008192585 -0.001586315 -4.119291e-24)
(0.01150869 -0.0001541649 0)
(0.009846433 -0.001402857 6.21694e-25)
(0.01098155 -0.0006122472 -7.892636e-25)
(0.008464583 0.001395052 -2.373316e-23)
(0.008649355 0.001943694 0)
(0.00923779 0.001678329 1.89309e-23)
(0.009196905 0.001445462 0)
(0.009903744 0.0006459317 -5.792164e-24)
(0.01058573 0.001767942 -3.718792e-24)
(0.01064563 0.001262769 -4.101372e-24)
(0.01015128 0.0005700717 6.524704e-24)
(0.01018988 0.000663939 0)
(0.01000813 0.000153612 0)
(0.01034886 0.001416031 0)
(0.01073673 0.001180288 1.231189e-23)
(0.010313 -0.001373267 -6.40404e-24)
(0.01020089 0.0009473881 0)
(0.008209222 0.002858032 -7.930268e-24)
(0.01008283 -0.001467941 4.582404e-24)
(0.01028695 0.0002314456 0)
(0.01127049 0.001188773 -7.295187e-24)
(0.008675754 0.0007382533 0)
(0.01073921 0.0005741407 0)
(0.01013886 0.0004828651 -1.935303e-23)
(0.01094845 -0.001010353 1.189405e-24)
(0.01132986 4.814788e-05 -3.06837e-24)
(0.009907755 0.0005721555 0)
(0.009775767 0.0009638771 5.228394e-24)
(0.01135779 0.001107212 -5.085351e-24)
(0.01057932 0.0006761883 -7.21892e-24)
(0.01144294 0.0006877384 2.268696e-26)
(0.01141856 -0.0003645602 -1.68588e-24)
(0.0114321 -0.0002544989 5.713018e-26)
(0.01065841 0.0007729437 1.135324e-23)
(0.01053524 0.001013243 1.871525e-23)
(0.009515413 -0.001597391 -8.667937e-24)
(0.01034575 0.001325041 4.6408e-24)
(0.01065738 -0.001212136 0)
(0.01088263 0.0008858933 -5.626445e-24)
(0.01085012 -0.001083642 0)
(0.01112258 0.0001203433 0)
(0.009348056 0.001222809 1.89878e-23)
(0.01135944 0.001082735 2.650759e-24)
(0.009141169 0.001041153 0)
(0.006831976 2.832936e-05 -4.379469e-23)
(0.009772825 0.0008119943 -8.931389e-24)
(0.01027061 0.0006421892 -4.869315e-24)
(0.01124709 0.0007671239 4.506502e-24)
(0.01122654 -0.0006496058 2.565466e-25)
(0.009426975 0.0005116515 -2.018863e-23)
(0.01088295 0.0003228342 6.285027e-24)
(0.01077686 0.0007449092 -1.247876e-23)
(0.009332877 -4.421254e-05 5.338752e-25)
(0.01077554 -3.568744e-05 1.163956e-24)
(0.01108282 -0.0001259811 -2.460359e-24)
(0.01023655 0.0001583126 1.487344e-24)
(0.01009917 0.0005813343 -1.185896e-23)
(0.01085988 0.0001436754 8.014851e-25)
(0.0114358 0.0002904831 -4.765176e-25)
(0.009591182 0.0004327591 -2.901823e-23)
(0.007737985 0.0007257796 -3.317098e-23)
(0.007233922 0.001969695 0)
(0.009453305 0.0005399181 -1.655512e-23)
(0.01057722 0.002020924 -1.035884e-23)
(0.01143582 6.609296e-05 -2.816333e-24)
(0.01058854 0.001807842 0)
(0.01107883 -0.0004503869 -1.470837e-24)
(0.01122173 -0.0004558068 -9.624121e-25)
(0.01008441 0.0005087269 -2.282156e-23)
(0.01028876 0.0008050763 1.950489e-23)
(0.00955762 0.0003756799 6.488232e-25)
(0.008634098 -0.001553478 6.239498e-24)
(0.006370233 0.001555465 -3.75184e-23)
(0.01133205 -0.0001419385 3.088031e-24)
(0.01073369 8.517853e-05 -6.314986e-24)
(0.0111988 0.0009012692 8.581375e-24)
(0.009146515 0.0007083445 -1.402671e-25)
(0.009760475 0.001020767 -1.207093e-25)
(0.01091542 -0.0008823593 1.256434e-24)
(0.01096523 0.0004389156 -6.699783e-24)
(0.00867118 -0.001694951 3.642495e-24)
(0.009560162 0.0009501093 -9.006426e-24)
(0.01019288 0.0005641185 -3.974351e-24)
(0.01078784 8.890016e-06 -7.899899e-25)
(0.0113431 0.00117119 -1.222556e-24)
(0.01100948 0.0001561647 6.295572e-24)
(0.009694211 0.0002583258 2.623352e-23)
(0.009019107 2.492496e-05 -2.165004e-23)
(0.01091541 0.001440516 8.738767e-24)
(0.009965639 0.001615538 2.513444e-24)
(0.008340949 0.001073829 1.806361e-23)
(0.01002557 0.0004217187 1.725954e-23)
(0.009534864 -0.001493061 0)
(0.0113146 0.001185291 5.389731e-24)
(0.0110574 0.0009996415 -7.791501e-24)
(0.008271154 0.00163837 3.106207e-24)
(0.009932758 0.0003907656 6.633901e-24)
(0.01111625 -0.0004331233 -1.883786e-24)
(0.01131647 -0.0005940178 0)
(0.01145224 0.0001969739 5.532891e-25)
(0.01091995 0.001561836 -7.176723e-24)
(0.01019072 0.0009982182 3.165221e-23)
(0.0102715 0.001377149 0)
(0.01036709 0.001120265 1.630776e-23)
(0.01126676 0.0001249152 -6.938286e-24)
(0.01111493 0.0004693656 6.759452e-24)
(0.01012906 0.001133839 1.211306e-23)
(0.01012579 0.0004980887 -5.577297e-24)
(0.01114172 0.0003119888 3.338458e-25)
(0.01120824 0.0001709373 0)
(0.01129958 0.000804596 4.597246e-24)
(0.01102979 -0.0009349753 6.218101e-25)
(0.008737393 -0.001482013 5.743007e-24)
(0.008627987 -0.001598589 -8.612651e-25)
(0.008311638 -0.001700985 2.184529e-24)
(0.0109374 -0.00028866 1.916907e-24)
(0.01142565 0.0007295591 0)
(0.009653512 0.0008346723 1.57368e-23)
(0.01043911 0.0006976523 0)
(0.008619783 0.0004319972 2.160467e-23)
(0.008956995 -0.0001042661 -5.372946e-23)
(0.01074844 0.0006149734 2.262752e-23)
(0.01020991 0.0004830419 7.926302e-25)
(0.01033085 0.0006901475 -1.810924e-23)
(0.01005448 0.001253678 7.816736e-24)
(0.00976932 0.0001665204 -1.033897e-23)
(0.01030897 0.0008977229 9.132293e-24)
(0.01033727 0.0008067889 1.117994e-23)
(0.01011564 0.0003435991 0)
(0.01030497 0.000817349 9.14622e-24)
(0.0102849 0.0006887005 9.489206e-24)
(0.01038012 0.0006804967 -1.259659e-23)
(0.009526984 0.0008726494 0)
(0.008585618 0.0006952495 -6.562899e-25)
(0.01109659 0.0008795406 2.089001e-24)
(0.01015881 0.0007198283 1.571552e-23)
(0.0101014 0.0004883177 -1.78689e-23)
(0.01118002 0.0006880322 3.428855e-24)
(0.01133284 -1.758969e-05 0)
(0.01118541 0.0006042295 -8.762282e-24)
(0.01115843 -0.0004868475 0)
(0.0114783 -3.533226e-05 -1.388524e-24)
(0.008537536 -0.001653995 4.428506e-24)
(0.01117423 -9.246389e-05 -2.428854e-24)
(0.0102387 0.00173262 -7.716268e-24)
(0.009628316 0.00142188 1.489292e-23)
(0.0100245 0.001688785 3.055767e-23)
(0.009904723 0.001415686 2.259051e-23)
(0.01138922 0.0002863205 0)
(0.009074785 0.001554241 1.619864e-23)
(0.01126969 0.000856829 -4.788583e-24)
(0.01040379 -0.0005700442 0)
(0.01089406 0.001295755 0)
(0.008402374 0.0009079741 -1.867751e-23)
(0.01019469 0.0005925452 0)
(0.01089794 0.0005194158 1.78524e-23)
(0.01015279 0.001015759 4.339267e-24)
(0.01033909 0.002013113 7.854631e-24)
(0.009451723 0.0003680261 4.246149e-23)
(0.01059836 0.0004550392 0)
(0.01149875 -0.0002032141 -3.335816e-25)
(0.01039594 0.0004160957 9.717513e-24)
(0.009927006 0.0001240099 3.441347e-23)
(0.00966537 0.0004890257 5.444307e-24)
(0.009548484 0.0005468397 -2.077654e-23)
(0.008499753 0.001892081 -2.405993e-23)
(0.01040758 0.000760093 0)
(0.008095435 -0.0002106872 -2.04978e-23)
(0.01111456 -0.0004029196 -2.424784e-24)
(0.01020265 0.0004609863 1.988615e-23)
(0.007761173 0.0004493321 -2.314912e-23)
(0.009706465 0.001872325 4.001702e-24)
(0.0102494 0.000528598 -3.062017e-23)
(0.006323331 0.002782375 1.815957e-23)
(0.01116205 0.0008944024 -9.668253e-24)
(0.009507373 -0.001368797 -1.053059e-24)
(0.01080619 -5.267262e-05 -5.299464e-24)
(0.01082448 -0.0001491708 -2.156586e-24)
(0.009021176 0.000114048 -2.298065e-24)
(0.01003527 0.0006755685 -2.553164e-23)
(0.01149423 0.0007368679 0)
(0.009521989 0.0023517 0)
(0.01019847 0.0004227365 -1.266312e-23)
(0.01061547 -0.001209165 0)
(0.009926696 0.00195794 -2.510409e-24)
(0.009281742 0.000902022 -1.797967e-23)
(0.01122976 0.0001243443 -9.245879e-24)
(0.01128746 0.0003686279 2.51435e-24)
(0.009612414 0.0008302058 3.702734e-23)
(0.009958372 0.0008229809 0)
(0.01015535 0.0012826 -1.426051e-23)
(0.01028073 0.0007503921 1.772675e-23)
(0.01114893 0.0005003073 2.904368e-24)
(0.01141628 0.0008825897 1.434595e-24)
(0.01156889 0.0003858827 0)
(0.009563253 0.0001501477 4.004279e-23)
(0.007799408 0.002310944 -4.350653e-23)
(0.006709051 0.001086298 -3.680559e-23)
(0.009643099 0.0004485793 0)
(0.01110484 2.738558e-05 4.12647e-25)
(0.01148346 -0.0002329801 2.028599e-25)
(0.009955253 0.0006605576 -8.495544e-24)
(0.011449 0.0004087724 3.521329e-24)
(0.01123778 -0.0004866191 -8.899068e-25)
(0.009318346 0.0003590815 4.397074e-24)
(0.009926558 0.002286855 0)
(0.01008069 0.002334568 2.362146e-24)
(0.01038373 0.0002496005 -3.885703e-24)
(0.009305643 7.605671e-05 -1.909393e-24)
(0.008156141 -0.001727716 4.611277e-24)
(0.009415521 0.0003174255 -7.100377e-24)
(0.009130647 0.0001303843 -1.456847e-23)
(0.01042321 0.0006345468 0)
(0.009604696 0.0002119807 1.403424e-23)
(0.009520012 0.0001889684 -1.493749e-23)
(0.01137188 -0.0004499609 2.197045e-24)
(0.01117434 -0.00027297 -9.106077e-25)
(0.01012423 0.0002746521 2.453786e-23)
(0.0110942 -0.0008222249 1.176378e-24)
(0.01000067 0.0004890198 1.60062e-23)
(0.009146949 0.0003336899 -1.752298e-23)
(0.009203749 -6.010007e-05 -4.264375e-23)
(0.01106225 -0.0006849426 -2.974412e-24)
(0.01093811 -0.0003266704 -2.605978e-24)
(0.01116911 0.001298501 7.313695e-24)
(0.01076466 0.00179065 5.649316e-24)
(0.01091493 0.0006567929 8.99372e-24)
(0.009848052 -0.001480369 3.595794e-24)
(0.01073325 -0.001154237 0)
(0.01050956 0.001656112 0)
(0.009945106 0.0003157463 -1.133093e-23)
(0.01135786 0.0003548868 4.394622e-24)
(0.0101773 0.001186926 -7.285729e-24)
(0.01038301 0.001155407 -6.868188e-24)
(0.01083302 0.001065545 -7.665823e-24)
(0.01092478 0.001349003 0)
(0.01048573 0.001051374 -6.241813e-24)
(0.01051999 0.001230834 -6.117879e-24)
(0.009685367 0.0003623902 2.982955e-23)
(0.0109714 0.001661643 7.368197e-24)
(0.01098945 -5.192942e-05 2.878823e-25)
(0.01069521 -0.00115265 0)
(0.0115265 -0.0001087408 5.494765e-26)
(0.01130654 -0.0002990102 1.376554e-24)
(0.009986299 0.0006457988 -1.4047e-23)
(0.008572185 0.0002750425 3.453605e-23)
(0.01045792 -0.001290427 -2.084111e-24)
(0.009879174 0.0005882253 -2.603148e-23)
(0.00989195 0.0006948932 1.41074e-23)
(0.008502733 0.0005450768 -1.472223e-25)
(0.01010654 -0.0009320089 -1.409589e-23)
(0.0103704 0.0005307189 0)
(0.01032547 0.001506745 -1.519443e-23)
(0.009015566 0.001243238 -1.637077e-23)
(0.009010287 -0.001479949 4.58415e-24)
(0.01086484 -5.385161e-05 2.648952e-24)
(0.01108867 -0.0008774233 3.265121e-24)
(0.009704112 0.0001275937 3.399847e-23)
(0.01016238 0.001680712 1.562366e-23)
(0.007396347 0.00284483 0)
(0.01017598 0.0004408489 1.148702e-23)
(0.00852271 -0.001482688 -5.412917e-24)
(0.009850262 0.0008722426 1.434696e-25)
(0.00928733 0.001839107 3.01547e-23)
(0.008860145 -0.0002093636 4.704328e-23)
(0.01003131 0.0004745979 0)
(0.009821437 4.003288e-05 -2.632979e-23)
(0.009922196 0.0002263969 -1.804982e-23)
(0.01105163 -0.0001034665 -3.965538e-24)
(0.01100598 0.0008850931 0)
(0.01103556 0.0009008292 -4.219629e-24)
(0.009919831 0.0009519898 0)
(0.01013754 0.0004646013 0)
(0.008670863 0.002778573 0)
(0.00985733 0.0004467457 0)
(0.009938766 0.001307356 1.451868e-23)
(0.0094058 -0.0002528795 -1.908297e-23)
(0.009540099 0.0004085966 0)
(0.01010394 0.001034481 1.212974e-23)
(0.009363987 0.000575462 0)
(0.007919997 0.00287374 1.297658e-23)
(0.01118439 -0.0005067215 0)
(0.01080487 0.0009993621 -7.23523e-24)
(0.009802654 0.0005079977 0)
(0.008016173 -9.355027e-05 2.397387e-23)
(0.009808786 0.000629236 -1.555428e-23)
(0.01154047 0.0001625847 0)
(0.01106474 0.0001008238 -2.455736e-24)
(0.009011278 0.0004729815 -2.449972e-23)
(0.009985239 0.0002509569 0)
(0.01082272 -0.0008684902 3.955583e-25)
(0.01053875 -0.001268592 0)
(0.0108257 0.0004355353 -8.9266e-24)
(0.01065461 0.0005755539 -2.99821e-24)
(0.00869723 -0.0001641533 0)
(0.0111085 -0.0006057503 8.168668e-26)
(0.01126895 0.0008933147 4.552429e-25)
(0.01001702 0.000534227 -2.590761e-23)
(0.01012119 -0.001440046 0)
(0.01062014 0.0007158867 0)
(0.009948987 9.026177e-05 2.484385e-23)
(0.009256939 0.0004984925 0)
(0.01026883 0.002225724 -4.655691e-25)
(0.01037269 0.00066015 -6.280664e-24)
(0.01116988 -0.0003374397 -3.525388e-24)
(0.01044517 0.0003671003 0)
(0.00945653 -0.0001467192 -1.831923e-23)
(0.01133343 0.001055243 -1.002148e-23)
(0.01022699 0.0006453777 -8.348317e-24)
(0.01067621 -0.0004944691 0)
(0.009870176 0.0009900735 -5.845951e-24)
(0.01016847 0.0006363783 0)
(0.010223 0.001687632 0)
(0.01102108 0.0007962567 0)
(0.008036002 0.0009906954 2.182232e-23)
(0.01033901 -0.0009818798 -1.926043e-23)
(0.01022834 0.0004955782 0)
(0.01108559 -5.625816e-05 -2.454931e-24)
(0.0111982 -0.0003734633 1.642651e-24)
(0.01050997 0.001574806 7.426681e-24)
(0.01107237 0.0004896616 -8.005963e-24)
(0.01021025 0.0003313994 0)
(0.01086294 0.001123897 -9.623753e-24)
(0.009492227 -1.714258e-05 1.793511e-23)
(0.009460421 0.0001279428 -1.159089e-23)
(0.009614814 0.000278601 -1.585122e-23)
(0.01008359 0.0004519376 -7.574737e-24)
(0.008794821 -0.0001119187 3.390343e-23)
(0.00799907 0.0001339114 1.263133e-23)
(0.01023562 0.0001930193 7.317168e-24)
(0.01146905 -0.000262082 0)
(0.01103147 0.001507158 0)
(0.01116917 -0.0001745559 -5.393087e-24)
(0.01106087 -0.000469919 1.047987e-24)
(0.0115024 0.0007792279 3.100759e-24)
(0.01004163 0.0007727758 -2.203021e-23)
(0.008972568 0.0002647213 -1.449565e-23)
(0.01134354 0.0004668279 0)
(0.01106019 0.0003698378 -1.34558e-24)
(0.01007139 0.0005509334 0)
(0.009687675 0.001920264 -8.35991e-24)
(0.009072221 0.002128092 -8.487646e-25)
(0.01029848 0.00222289 -1.792392e-23)
(0.00973283 0.00245601 -9.553532e-25)
(0.00885989 0.001606521 3.914848e-29)
(0.01015764 0.0008668037 8.130111e-24)
(0.009275003 0.002324808 5.89505e-24)
(0.009625665 0.001597407 7.96341e-24)
(0.01128153 0.0004092333 3.460236e-24)
(0.01065056 0.0008141227 0)
(0.01018031 0.0008398055 1.9155e-23)
(0.01112938 0.0007252296 0)
(0.01030461 0.0008415216 0)
(0.0100329 0.001545675 0)
(0.01010589 0.0003167522 0)
(0.01147991 4.745203e-05 -1.422044e-24)
(0.01129245 0.0005881674 2.207931e-24)
(0.01002502 0.0006801715 0)
(0.01009377 0.001919919 8.588289e-24)
(0.01094464 0.001153518 4.494521e-24)
(0.01030555 0.0005967908 5.832193e-24)
(0.01116232 -0.0005960382 -3.80754e-25)
(0.01135166 -0.0004220306 -8.421227e-25)
(0.01087832 -0.0009232159 -3.100576e-24)
(0.01019901 0.0003859714 0)
(0.01103052 -0.0007350092 1.520847e-26)
(0.008221729 0.0002880126 5.168455e-23)
(0.009251657 0.0002432317 -4.604726e-23)
(0.009177286 0.0001636369 6.018547e-23)
(0.008901195 0.0006757573 1.972915e-23)
(0.008971163 0.0003147975 0)
(0.01055814 0.0006546517 0)
(0.009687183 0.0004858875 0)
(0.01061545 0.0008869959 0)
(0.009823643 0.0001817893 0)
(0.01122537 -0.0007222485 0)
(0.01014248 0.000665326 2.209903e-23)
(0.00982115 -0.00145564 2.081334e-24)
(0.01010524 0.0005127993 0)
(0.01011295 0.0005954916 6.577036e-24)
(0.01004041 0.001981134 0)
(0.009864657 0.001045929 1.03381e-23)
(0.009854619 0.001227776 -3.547882e-23)
(0.009519064 0.001099759 0)
(0.01126861 0.001229315 -3.258519e-24)
(0.008642892 -0.001364749 6.23034e-24)
(0.01044255 0.0009632437 8.815111e-24)
(0.0102038 0.0004946686 -9.185257e-24)
(0.008356115 -0.001488157 3.553396e-24)
(0.008845344 0.0007960789 0)
(0.0110298 0.0004881583 0)
(0.01065016 -0.001217178 0)
(0.01001116 0.0002491728 1.82758e-23)
(0.01008355 0.0002613658 4.564357e-25)
(0.009935464 0.0008317924 0)
(0.009703993 0.001112812 0)
(0.01016845 0.0005261827 1.123204e-23)
(0.0108158 0.0006491485 8.038457e-26)
(0.01019532 0.000765933 0)
(0.01142719 0.000983264 -4.878863e-24)
(0.01129003 2.003179e-05 -6.013627e-24)
(0.01033055 0.0005314795 -9.922518e-24)
(0.009685371 -0.0004399172 0)
(0.007359522 0.002222898 0)
(0.006973579 0.002338989 -2.595805e-23)
(0.0105754 0.001006568 -2.339454e-23)
(0.009069677 -0.001512958 3.81921e-24)
(0.01041468 0.001543586 -1.110323e-23)
(0.01001711 0.001821423 -7.03434e-24)
(0.01050667 0.001858502 -1.051261e-23)
(0.009377509 0.002033105 -6.907653e-24)
(0.01111002 -0.0002299216 -1.548896e-24)
(0.0104576 0.0007928693 4.961918e-24)
(0.01087329 0.0008269178 2.310161e-24)
(0.009483253 0.0008765564 -7.783065e-24)
(0.009652841 0.00117561 -2.005031e-23)
(0.0111047 0.001143667 0)
(0.009247669 0.001114398 1.601298e-23)
(0.009390628 0.0008566679 -3.273606e-23)
(0.01008655 0.0006308602 1.314875e-23)
(0.01006012 0.0005690048 -7.034947e-24)
(0.01062599 -0.0009179419 0)
(0.01147462 -0.0002809646 0)
(0.007350932 0.001337719 5.956709e-23)
(0.01054546 0.0004564901 0)
(0.009871154 -0.0004417192 0)
(0.01106328 0.0001421738 -2.438259e-24)
(0.01059921 0.0007248229 0)
(0.01039395 2.814834e-05 -1.011353e-23)
(0.0109481 -0.0009773152 1.536842e-24)
(0.01071035 0.001695872 1.938158e-23)
(0.01150109 9.47781e-06 -3.109114e-24)
(0.01092669 0.0002212127 9.104867e-24)
(0.01069766 0.0002064578 0)
(0.01028738 0.00101244 1.143641e-25)
(0.009732787 0.0003132232 -2.032534e-23)
(0.007723605 0.0008443022 0)
(0.008537657 0.001049573 2.365126e-23)
(0.0104276 0.0006746623 -5.489543e-24)
(0.01009671 0.0004010043 1.28241e-23)
(0.01012557 0.0004315871 -1.914985e-23)
(0.01127629 -0.000491797 -7.458893e-25)
(0.01009283 0.0005262932 -1.063723e-23)
(0.01012165 0.0005715738 0)
(0.01079854 -0.0008407363 3.892734e-24)
(0.01135527 0.0003888656 0)
(0.009640786 0.0003859116 -3.263719e-24)
(0.009991224 0.001395039 -1.779727e-23)
(0.01118363 -0.0007754523 0)
(0.01090556 3.044837e-05 0)
(0.01047119 -0.00131218 0)
(0.008027644 0.0002275769 -2.51653e-23)
(0.01132337 0.001106177 1.035355e-23)
(0.00860098 0.0001984452 -3.11758e-23)
(0.01052611 0.0005112253 -2.182509e-25)
(0.01074682 0.0007234755 -5.175256e-24)
(0.01049194 -0.001220464 1.060588e-24)
(0.01131334 0.0007965165 -4.607267e-25)
(0.01145207 -1.681982e-05 -2.988517e-24)
(0.009844397 0.0001466174 0)
(0.01013689 0.0009064132 -8.583579e-24)
(0.008660808 -0.00150178 8.411193e-26)
(0.008461613 -0.001586944 8.315948e-25)
(0.008914248 -0.001523804 -3.183005e-24)
(0.01069722 0.0005536206 -9.589148e-24)
(0.0109636 0.001356549 -7.461981e-24)
(0.01043529 0.0009923475 1.158124e-23)
(0.01052282 0.001918586 -1.279326e-23)
(0.01045958 0.001843136 -4.171322e-24)
(0.009450108 -0.001484951 0)
(0.009152354 -0.00162877 0)
(0.009868594 0.0006593548 -1.771349e-23)
(0.01135795 0.0007342697 0)
(0.0111253 0.001070954 0)
(0.009481045 -0.001582858 2.238693e-24)
(0.01124889 -0.0003748813 -5.444534e-25)
(0.01091514 0.0004889226 -1.489819e-23)
(0.009500937 -0.0001976929 0)
(0.01101709 -0.0007077211 6.114621e-26)
(0.01006631 0.0003880689 1.136521e-23)
(0.01152006 0.0005678795 0)
(0.0115502 0.0005235877 2.334536e-24)
(0.01131074 0.0007073624 2.39743e-24)
(0.008369657 -0.001706099 -2.571974e-24)
(0.01114383 -0.0004426309 -1.140905e-24)
(0.01115983 -0.0007685074 8.926605e-25)
(0.009889954 0.001645265 -1.448755e-24)
(0.01089597 -0.0001468352 -3.514042e-24)
(0.00833256 0.002663778 6.003048e-24)
(0.01002506 0.0002605347 4.426762e-24)
(0.01000026 3.02795e-05 2.101202e-23)
(0.009965557 0.0006187839 -2.422477e-23)
(0.0109636 -0.0003443183 1.891098e-24)
(0.01048465 0.001756919 8.599847e-25)
(0.008774131 0.00277733 -2.092413e-23)
(0.01123595 7.471773e-05 -6.913113e-24)
(0.01121323 6.669917e-05 8.2129e-24)
(0.01142563 0.0002150594 0)
(0.01129413 -0.0005883498 -9.738853e-25)
(0.01133166 0.001200219 -3.59873e-24)
(0.01065756 0.001969535 -1.777493e-23)
(0.01147563 0.0008404534 9.464793e-25)
(0.01146764 0.0007754624 0)
(0.01100192 0.0005921987 0)
(0.01064847 0.001103837 0)
(0.01002473 0.000696287 -1.785135e-23)
(0.01048177 0.0009250184 -8.579142e-24)
(0.01045884 0.0008425369 0)
(0.01083266 -0.0009468959 0)
(0.01123061 0.0008581363 -5.595218e-24)
(0.008555246 0.002283596 0)
(0.009427049 -0.0001787678 4.736678e-23)
(0.009694668 0.0005455253 -4.308384e-24)
(0.009216193 0.0005269519 0)
(0.01138009 0.0008601928 0)
(0.009095712 -0.001661396 -1.050416e-23)
(0.008172576 0.00190074 0)
(0.00821976 0.002792625 -1.422887e-23)
(0.01043679 0.001588602 1.103121e-23)
(0.01085369 -0.0002567817 -1.515025e-24)
(0.01086877 0.0010381 1.690224e-23)
(0.009282528 -0.0002930376 7.669322e-24)
(0.009274997 -2.772986e-05 -2.426824e-23)
(0.01129212 0.0002806244 -2.803085e-24)
(0.01131376 -0.0005204663 -7.844969e-26)
(0.01108242 -0.0007087828 7.775107e-26)
(0.008949358 -0.001374959 6.110963e-24)
(0.009357512 0.0002036129 0)
(0.009904839 0.0007491582 0)
(0.01019874 0.0007433225 0)
(0.01002658 0.0007353258 -8.858656e-24)
(0.009719604 0.0002731453 0)
(0.009696961 -0.001200101 7.083904e-24)
(0.01126377 0.0004755376 -1.70947e-24)
(0.01013754 0.0005422199 -1.478564e-23)
(0.01117235 0.0004167914 0)
(0.01100915 0.0003899822 -9.777393e-24)
(0.009331044 -0.001628448 0)
(0.01043714 0.0001610512 -1.234284e-23)
(0.01020884 0.002265215 0)
(0.01037352 -0.001272587 4.369277e-24)
(0.01105166 0.0004745654 0)
(0.01092685 -0.0002078988 -4.577556e-25)
(0.01064965 -0.001207635 -9.94293e-25)
(0.01095597 0.0002599796 5.825698e-24)
(0.00787734 -0.000110296 0)
(0.01120663 0.0005616032 1.299151e-23)
(0.009036825 0.0006185379 -1.693575e-23)
(0.01072736 -5.458804e-06 -3.843168e-24)
(0.008014341 0.001326775 7.752799e-24)
(0.0114695 0.0003971118 0)
(0.0115095 -6.760522e-05 -7.082532e-25)
(0.008898455 -0.001126688 5.291634e-24)
(0.01037048 0.0008915897 1.256481e-23)
(0.01096372 0.0007970993 0)
(0.009453993 0.0007927078 -3.006818e-23)
(0.01079845 -0.0006863921 8.638834e-24)
(0.01119061 -0.0003161886 1.712542e-24)
(0.01130469 -0.0002007581 -1.557705e-24)
(0.009734489 0.0003531188 -1.990811e-23)
(0.0100546 0.0008101295 5.714976e-25)
(0.01041657 0.0005521012 0)
(0.01156712 0.0004115217 1.049384e-24)
(0.01019794 0.000536904 -6.097844e-24)
(0.01070073 0.0007504886 -2.74231e-24)
(0.01056701 0.0007820381 -1.262743e-23)
(0.01084594 0.0008568428 0)
(0.009941486 7.037106e-05 -1.870584e-24)
(0.009533298 -6.213186e-05 0)
(0.01080654 0.001312411 1.652527e-24)
(0.009851734 0.000710825 -1.218365e-23)
(0.01089191 0.000648775 -1.240734e-23)
(0.01057681 -0.001153192 1.715279e-24)
(0.01108904 -0.0006740991 2.568663e-25)
(0.009946597 0.0005359698 2.614956e-24)
(0.009903417 0.0001868664 3.034997e-23)
(0.009735268 0.0001149356 -1.532283e-23)
(0.01079842 0.0008918856 0)
(0.01034753 -0.0013318 1.972069e-24)
(0.008717912 4.111504e-07 8.67121e-24)
(0.01111564 0.0003569402 7.724665e-24)
(0.009282407 0.0007483948 1.303657e-23)
(0.01005187 0.0001067772 8.619842e-24)
(0.009705109 0.0006652215 1.107292e-23)
(0.00909441 0.0009873927 -1.132695e-23)
(0.009857493 0.0008191351 -4.587871e-24)
(0.008226453 -0.001425493 -5.406396e-24)
(0.008788158 0.002225442 -7.838803e-24)
(0.01000106 4.240208e-05 -1.350438e-23)
(0.00988565 0.0009104965 -3.870498e-24)
(0.01100872 0.001258158 2.320324e-24)
(0.01087513 -0.0009077055 0)
(0.009941984 0.0001943604 -1.493713e-23)
(0.01073967 0.001247621 5.546351e-24)
(0.01152318 -7.565807e-05 1.130505e-24)
(0.008295839 0.00276478 5.364648e-23)
(0.01056162 0.0007426602 -1.509251e-23)
(0.005810421 0.0007573639 -4.330122e-24)
(0.009592515 0.0003667873 -1.69559e-23)
(0.009991515 0.0001914218 1.880457e-23)
(0.009655853 0.001456265 0)
(0.009305941 0.001345299 -8.933102e-24)
(0.009005832 0.001487458 -2.035357e-23)