/*--------------------------------*- C++ -*----------------------------------*\
| =========                 |                                                 |
| \\      /  F ield         | OpenFOAM: The Open Source CFD Toolbox           |
|  \\    /   O peration     | Version:  2406                                  |
|   \\  /    A nd           | Website:  www.openfoam.com                      |
|    \\/     M anipulation  |                                                 |
\*---------------------------------------------------------------------------*/
FoamFile
{
    version     2.0;
    format      ascii;
    arch        "LSB;label=32;scalar=64";
    class       volScalarField;
    location    "0.2";
    object      p;
}
// * * * * * * * * * * * * * * * * * * * * * * * * * * * * * * * * * * * * * //

dimensions      [0 2 -2 0 0 0 0];

internalField   nonuniform List<scalar> 
4536
(
-1.800865e-05
3.096128e-05
-8.435855e-07
-1.625002e-05
4.495226e-05
4.761113e-05
3.137704e-05
2.93223e-05
1.896003e-06
3.822159e-05
-4.793377e-06
1.83356e-06
-7.817516e-06
3.84423e-05
3.185304e-05
1.790835e-05
3.612664e-05
-1.454692e-06
4.262718e-05
4.86555e-05
2.777451e-05
2.835179e-05
5.076035e-06
2.963116e-05
3.099972e-06
5.099299e-05
2.655908e-05
2.937023e-05
-1.446787e-05
8.371721e-06
1.954066e-05
1.650529e-06
3.820623e-05
1.521917e-05
2.004443e-05
3.849674e-05
3.248727e-05
3.371146e-05
3.036837e-05
-3.917621e-06
2.475706e-05
1.434426e-05
3.170499e-05
4.909892e-05
-8.015855e-06
-1.97944e-05
3.007358e-05
1.786158e-05
-2.41128e-06
3.908228e-05
2.747544e-05
4.436487e-05
2.618898e-05
-3.962737e-07
5.248422e-05
3.911768e-05
4.383787e-05
2.113789e-05
-2.11129e-05
-1.568993e-06
4.589034e-05
2.590936e-05
-3.744144e-06
3.438889e-05
2.260183e-05
9.925432e-06
3.143734e-05
1.219223e-05
2.496191e-05
9.230465e-06
2.325914e-05
3.984751e-05
5.02384e-06
-1.043963e-05
2.798977e-05
2.855563e-06
1.239678e-05
3.317362e-05
-1.695017e-05
-6.152486e-06
2.233783e-05
6.131376e-05
8.668851e-05
-8.773602e-06
4.136672e-05
2.443002e-05
2.458678e-05
2.387376e-05
2.182458e-05
4.407192e-05
3.199262e-05
4.279202e-05
4.082066e-05
1.736693e-05
2.875053e-05
3.48505e-05
4.596459e-06
3.151803e-05
-1.952564e-05
8.951818e-06
-1.886847e-05
4.516058e-06
1.631677e-05
3.677869e-05
-9.118614e-06
-2.140954e-06
2.015986e-05
-2.371873e-06
2.570472e-05
1.734707e-05
7.278208e-05
3.557772e-05
2.77152e-05
4.163895e-05
3.303719e-05
5.242613e-06
-1.08364e-05
2.584978e-05
3.598995e-05
1.341102e-05
6.272674e-06
1.446526e-05
3.573335e-06
-6.484665e-06
1.368445e-05
5.121245e-05
3.716298e-05
2.0925e-05
1.072858e-05
4.015112e-05
-9.519633e-06
1.628427e-06
4.845021e-05
2.620929e-05
5.386208e-05
2.784892e-05
-1.011413e-05
8.742145e-06
2.943855e-05
1.695906e-05
3.607776e-05
-7.262213e-06
1.454512e-05
3.811397e-05
2.704565e-05
-1.197119e-06
1.217392e-05
3.261877e-05
3.144515e-05
5.217463e-05
2.832973e-05
3.294924e-05
-2.397913e-06
1.969804e-05
4.457802e-05
4.272164e-05
4.332675e-05
1.66883e-05
3.437629e-05
2.602582e-06
7.084121e-06
3.302349e-05
5.011367e-06
3.736277e-05
5.421589e-05
3.201876e-05
1.164664e-05
2.481585e-05
2.255801e-06
5.04464e-05
4.269417e-05
3.41632e-05
1.924145e-05
8.17056e-05
2.369196e-05
4.414653e-05
7.567037e-06
2.811209e-05
3.315503e-05
2.187062e-05
1.854411e-05
2.91429e-05
6.878432e-05
4.016594e-05
4.671834e-05
5.941943e-05
3.763244e-06
2.347801e-05
9.387099e-06
2.457177e-05
1.57828e-06
-1.419506e-05
3.637929e-06
-5.132933e-06
2.483259e-06
5.285734e-05
5.241446e-05
4.462894e-05
4.52287e-05
3.577201e-05
2.793442e-05
2.536254e-05
2.940752e-05
2.939388e-05
2.990955e-05
2.979481e-05
2.480916e-05
-7.199331e-06
3.098451e-05
4.060172e-05
-7.683202e-06
2.33983e-05
1.513087e-05
5.082264e-05
2.006692e-05
2.878448e-05
-3.13438e-06
-1.530553e-06
3.583469e-05
3.803378e-05
1.306355e-05
2.304499e-05
3.858256e-06
-6.91132e-07
3.429343e-06
2.318522e-05
2.604487e-05
-9.332283e-06
2.887251e-05
-5.086161e-06
2.044447e-05
-2.641536e-06
1.056662e-05
4.446226e-05
8.024191e-06
4.638604e-05
7.395486e-05
3.873828e-05
2.775016e-05
1.491355e-05
9.844419e-07
4.343415e-05
1.593627e-05
2.065395e-05
4.532847e-05
8.93735e-06
7.741532e-06
2.374802e-05
3.114665e-05
1.334202e-05
5.65999e-07
4.137035e-05
6.077264e-05
6.802788e-05
4.250106e-05
2.309902e-05
7.225054e-06
2.38939e-05
3.575637e-06
3.615715e-06
3.070497e-05
2.845574e-05
4.193115e-05
-1.091443e-05
7.42554e-05
5.825296e-06
1.443708e-05
1.647379e-05
4.663537e-05
3.807704e-05
-1.014018e-07
1.59158e-05
-1.463936e-05
4.103685e-05
2.840576e-05
1.095819e-05
1.252392e-05
1.210811e-05
4.07019e-05
4.831719e-05
2.165591e-05
3.497698e-05
5.74065e-05
3.216144e-05
-7.470804e-06
1.388893e-05
1.870668e-05
5.55574e-05
3.620833e-05
4.300717e-06
-5.800957e-07
6.786277e-07
8.477823e-06
3.133399e-05
3.090119e-05
2.829384e-05
9.229563e-06
1.437554e-05
3.307171e-05
2.948335e-05
1.19962e-05
1.0856e-05
1.420119e-05
-2.373175e-06
-9.374248e-06
-1.143434e-05
-1.536733e-05
5.605981e-06
1.159569e-05
3.908622e-05
2.532023e-05
5.289136e-05
4.852065e-05
2.028521e-05
-7.97944e-06
2.723476e-05
3.480791e-05
4.010778e-05
2.898777e-05
2.760129e-05
2.758287e-05
2.853751e-05
2.795596e-05
2.612196e-05
4.221809e-05
5.29762e-05
1.780493e-05
3.032832e-05
3.019394e-05
1.502955e-05
7.296424e-06
1.475483e-05
3.297573e-06
6.072445e-06
-1.178819e-05
7.957237e-06
3.107238e-05
3.920258e-05
3.426682e-05
3.542556e-05
9.951591e-06
4.596001e-05
1.525092e-05
-1.249217e-05
2.173866e-05
5.385992e-05
2.89825e-05
1.767621e-05
3.125455e-05
2.711056e-05
4.396868e-05
2.078602e-05
2.425076e-06
2.354271e-05
3.8775e-05
4.094843e-05
4.182482e-05
5.574217e-05
2.595194e-05
5.86951e-05
4.689493e-06
2.724338e-05
6.366086e-05
3.781376e-05
2.675471e-05
6.327193e-05
1.6676e-05
-1.585811e-05
8.748269e-06
6.990328e-06
4.7527e-05
3.263262e-05
1.037597e-05
3.840613e-05
2.680833e-05
-6.508564e-06
1.063388e-05
4.471827e-05
9.655979e-06
1.882096e-08
4.140057e-05
3.479196e-05
3.140896e-05
2.835701e-05
1.449175e-05
5.970039e-06
6.518655e-06
4.252263e-05
5.907877e-05
7.5671e-05
4.06932e-05
9.8222e-06
9.947554e-07
3.454124e-05
9.526005e-06
2.95059e-06
4.491627e-05
3.164221e-05
2.719086e-05
-1.088457e-05
4.515574e-05
-1.746585e-05
4.414462e-05
4.676881e-05
2.487335e-05
4.165031e-05
4.310099e-05
-1.004924e-06
5.329117e-06
2.654969e-05
4.969885e-07
3.320123e-05
4.694642e-05
4.658923e-05
-5.178899e-06
4.802431e-06
1.624281e-05
2.187696e-05
1.845896e-05
-7.091262e-06
-5.170493e-06
6.514888e-06
3.636803e-05
1.042992e-05
3.138584e-05
2.967015e-05
2.210179e-05
2.202095e-05
2.696151e-05
2.7212e-05
4.065583e-05
1.525687e-05
8.787445e-06
-4.225956e-06
1.561792e-06
-2.817595e-06
3.408847e-05
5.278328e-05
-4.268484e-06
3.64498e-05
3.611407e-05
5.406308e-05
-1.449906e-05
2.516261e-05
3.033661e-05
4.87036e-05
-2.167819e-05
-7.132427e-06
-1.057282e-06
4.108618e-05
3.24099e-05
4.369467e-05
2.750769e-05
-1.011201e-05
3.658957e-05
4.366088e-05
5.065758e-05
3.248509e-05
4.036577e-05
3.809431e-05
7.951982e-06
1.90025e-05
1.87162e-05
3.564136e-05
2.865028e-05
4.370666e-05
3.757265e-05
3.551739e-05
4.460193e-05
4.206938e-05
3.293135e-05
4.362369e-05
4.564004e-05
2.619322e-06
2.237802e-05
3.843794e-05
5.955535e-05
3.77615e-05
2.153507e-06
1.119913e-05
4.897416e-05
3.48072e-05
-6.920421e-06
-6.092631e-06
1.739649e-05
2.109265e-05
5.212034e-05
2.886828e-06
2.712167e-06
3.288033e-05
-5.719514e-06
2.282443e-05
3.890713e-05
4.521663e-05
2.730458e-05
2.622759e-05
4.736919e-06
2.231451e-05
4.374429e-05
1.432739e-05
2.855808e-05
-1.107865e-05
3.620706e-05
2.961023e-05
6.36817e-06
1.835341e-05
5.80604e-05
-9.73521e-06
2.69345e-05
8.344741e-06
4.597683e-06
2.724292e-05
1.566936e-05
2.560906e-05
2.264084e-05
4.322072e-05
4.316926e-05
4.192007e-05
2.987435e-05
5.011898e-05
5.721437e-05
2.450034e-05
2.509788e-06
1.100867e-05
6.335125e-06
3.872185e-06
8.378948e-06
3.305433e-05
4.786557e-05
1.198022e-05
1.401897e-05
3.169407e-05
3.848329e-05
4.579528e-05
2.444972e-05
3.099911e-05
4.869413e-05
3.135353e-05
4.216579e-05
4.070374e-05
1.181335e-05
2.288085e-05
3.021792e-05
1.714413e-05
2.83653e-05
3.492306e-05
2.741365e-05
5.416487e-06
1.324262e-05
3.329094e-05
3.264764e-05
2.117506e-05
2.660282e-05
1.756573e-06
2.527948e-06
-6.431505e-06
2.640203e-05
1.29883e-06
5.898787e-05
4.571963e-05
4.72209e-05
4.89555e-05
4.88127e-05
2.301788e-05
4.051204e-05
2.457465e-05
4.032078e-05
-7.067776e-07
3.060664e-05
-5.829182e-06
3.011744e-05
3.076752e-05
3.175263e-05
3.721902e-05
3.663776e-05
4.096984e-05
1.587375e-05
-2.659997e-05
2.668145e-05
2.770554e-05
-2.820557e-05
4.960061e-05
1.546272e-05
-4.848931e-06
3.161147e-05
2.735115e-05
3.451858e-05
3.906291e-05
2.883677e-05
1.940017e-05
2.998176e-05
1.161329e-05
7.624599e-06
2.557788e-05
-2.009483e-05
6.506467e-05
6.735327e-05
2.560283e-05
-9.665715e-06
2.903175e-05
3.450372e-05
2.778075e-05
4.209498e-05
5.800323e-06
2.548571e-05
2.062132e-05
4.20174e-05
3.941072e-05
1.907448e-05
4.572396e-05
4.295902e-05
3.16889e-05
3.180832e-05
-8.922605e-06
2.727559e-06
6.570557e-05
2.172889e-05
-1.899072e-05
1.065977e-05
2.318021e-05
2.128445e-05
-1.999695e-06
2.452042e-05
5.630501e-06
1.365198e-05
1.69577e-05
2.965437e-05
4.020366e-05
5.968849e-05
5.253068e-05
2.528487e-05
2.896066e-05
2.846778e-05
2.517392e-06
3.05858e-05
3.019695e-05
-7.816054e-06
1.08536e-07
4.142855e-05
3.496035e-05
-1.228221e-06
1.097995e-05
-5.96557e-06
5.56704e-05
1.469191e-05
5.25121e-05
2.24385e-05
2.117873e-05
-3.033333e-06
2.887652e-06
5.697003e-06
3.933067e-05
3.166917e-05
-9.301651e-06
-1.152958e-05
-9.814831e-06
2.028488e-05
2.117659e-05
2.725619e-05
2.690374e-05
2.795809e-05
-6.83017e-06
-9.060519e-06
3.650711e-05
1.299777e-05
1.75639e-05
-7.636222e-06
3.882015e-06
1.693149e-05
4.315278e-05
6.195179e-07
2.992624e-05
9.494391e-06
7.885614e-06
1.351519e-05
-1.722616e-05
3.334806e-06
-5.312833e-08
5.065739e-06
7.059106e-06
2.89612e-05
3.07702e-05
2.78748e-05
3.458438e-05
4.877612e-06
2.70622e-05
4.191855e-05
9.283598e-06
9.513285e-06
8.363319e-06
-2.585123e-06
1.210456e-05
2.223433e-05
9.384827e-06
1.06457e-05
1.689559e-05
2.487485e-05
3.342693e-05
2.637879e-05
2.600151e-05
-9.936016e-07
1.558304e-05
4.897953e-05
4.35197e-05
3.981654e-05
4.55889e-05
1.411958e-05
-1.095589e-05
5.727778e-05
3.743536e-05
2.87631e-05
5.415648e-06
2.095665e-05
4.481627e-05
4.654901e-05
1.035506e-05
1.970874e-06
1.34173e-06
-2.382667e-05
4.454183e-05
3.570858e-05
2.969944e-05
3.324456e-05
4.053167e-05
-1.805076e-05
-1.348101e-07
2.935971e-05
1.347356e-05
1.523326e-05
-1.239119e-05
2.093181e-05
2.430601e-05
-3.190965e-06
1.479185e-05
6.577107e-06
-2.504395e-06
1.39895e-05
6.202949e-05
1.430059e-05
4.801335e-05
9.305202e-06
5.898303e-05
1.762632e-06
1.322791e-06
-2.579999e-05
2.816157e-05
1.871216e-05
4.218453e-05
-7.100531e-06
4.793189e-06
5.206807e-06
3.961768e-05
-6.757641e-06
2.441186e-05
5.09111e-06
2.819389e-05
2.148465e-05
2.409582e-05
2.06257e-05
-1.554323e-05
4.286825e-05
2.330417e-05
3.685457e-05
1.83832e-05
-2.89088e-06
1.345433e-06
3.502163e-05
3.857134e-05
4.106757e-05
2.159322e-05
-4.57284e-06
5.090795e-05
1.333771e-05
4.602304e-05
2.583451e-05
3.92382e-05
4.565756e-05
3.634637e-05
-1.108117e-05
4.924827e-05
3.266431e-05
3.607283e-05
1.923924e-05
-1.545125e-07
3.799759e-05
2.355828e-05
4.699392e-06
4.843056e-05
2.382649e-05
8.039007e-05
4.116172e-05
3.476734e-05
3.858492e-05
4.278164e-05
4.76198e-05
4.84759e-05
4.090641e-05
4.396999e-05
2.780275e-05
4.189085e-05
2.889766e-05
2.933559e-05
4.409722e-05
3.66074e-05
1.908706e-05
-1.07011e-05
2.503251e-05
4.027664e-05
-1.094546e-05
4.686713e-06
1.967032e-05
2.751184e-05
3.17681e-05
4.64435e-05
2.222887e-05
-2.866571e-06
5.435467e-05
3.772599e-05
1.77641e-05
5.940036e-06
-7.24002e-06
3.924105e-05
5.488082e-06
3.106498e-05
2.83805e-05
3.002201e-05
3.526982e-05
5.586987e-05
2.038057e-06
4.511471e-06
-1.807921e-05
-1.309625e-05
2.436188e-05
2.843709e-05
1.138189e-05
1.137325e-05
8.224508e-06
1.726774e-06
2.641079e-05
3.685597e-05
3.058083e-05
2.916427e-05
-1.261715e-05
3.527054e-05
1.901236e-05
-1.960076e-06
1.119097e-05
5.810907e-05
8.772325e-06
9.972384e-06
3.897614e-05
4.606394e-06
1.661639e-05
3.548426e-05
5.122017e-05
5.426646e-05
4.604707e-05
4.683249e-05
4.984181e-05
2.264918e-05
6.931709e-06
2.433517e-05
-1.234165e-05
4.346954e-05
3.058197e-05
3.150724e-06
6.166905e-05
-1.510754e-05
7.644832e-06
2.062407e-05
2.592557e-05
2.654517e-05
2.439766e-05
2.420753e-05
3.038642e-05
3.115936e-05
4.116559e-05
-2.702323e-06
-2.370169e-06
-6.901393e-09
9.036303e-06
-2.209106e-06
2.74553e-06
2.976911e-05
1.057286e-05
1.82666e-05
1.084863e-06
3.352154e-06
5.074259e-06
2.911313e-05
3.398629e-05
3.514316e-05
3.417958e-05
3.347686e-05
1.743971e-05
2.029394e-05
-4.064854e-06
-4.395387e-06
2.837338e-05
2.636421e-05
2.679786e-05
2.520076e-05
2.110687e-05
-4.363288e-07
-5.910689e-06
3.172289e-07
2.320464e-06
3.639848e-05
3.729795e-05
2.344678e-05
-3.615438e-06
3.691731e-05
3.351846e-05
2.618774e-05
2.139715e-05
3.180247e-05
3.206197e-05
1.173176e-06
-6.768051e-06
-7.418336e-06
-9.294268e-06
-3.662307e-06
4.054787e-05
-1.499706e-06
-9.180296e-06
-1.293236e-05
5.358656e-05
-7.199272e-06
-9.597223e-06
6.789162e-06
3.168118e-05
2.62651e-05
-2.539719e-06
-1.137775e-05
-4.021795e-06
1.343716e-06
3.35775e-05
3.41444e-05
2.760534e-05
3.550274e-05
7.677944e-06
6.156175e-06
1.252451e-05
3.035885e-05
5.238148e-05
2.805877e-05
2.967199e-05
3.286766e-05
5.250504e-05
4.697152e-05
4.372489e-05
5.403017e-06
4.201113e-05
4.918922e-05
3.837647e-05
7.549707e-06
2.557672e-05
4.242132e-05
2.558189e-05
3.522701e-05
3.710906e-06
9.469051e-07
2.6185e-05
2.747137e-05
4.188154e-05
2.560811e-05
2.153898e-05
1.91337e-05
2.488977e-05
3.476764e-06
3.804959e-05
2.832584e-05
4.453352e-05
3.002339e-05
4.311006e-05
4.784652e-06
3.4268e-05
1.546744e-05
4.515105e-05
4.83637e-05
5.392316e-05
5.169196e-05
5.044607e-05
3.369435e-05
3.224345e-05
8.919676e-06
2.943063e-05
-6.596446e-06
2.103686e-05
2.222167e-05
3.31427e-05
2.894152e-05
1.776414e-05
3.716932e-05
-4.2762e-06
-7.669863e-06
2.987172e-05
2.970319e-05
4.073163e-05
2.165826e-05
5.11955e-06
-1.72524e-05
4.381606e-05
4.199368e-05
4.234835e-05
6.743617e-06
5.393856e-05
1.093079e-06
5.176994e-06
1.498491e-05
1.348952e-05
1.441511e-05
3.747417e-05
2.146233e-07
-2.763075e-06
-1.325714e-06
1.814237e-05
-7.662002e-06
4.363178e-05
6.198873e-08
-9.263532e-06
8.675526e-06
4.758368e-05
4.016863e-05
3.45432e-05
2.07196e-05
3.406234e-05
3.605927e-05
1.836643e-05
4.068213e-05
2.184688e-05
5.225882e-05
2.469424e-05
2.67432e-05
2.579179e-05
6.100549e-06
4.040484e-05
3.972496e-05
3.958556e-05
3.213051e-06
3.316259e-06
-1.300748e-05
4.484608e-05
3.405204e-05
4.393943e-05
4.425632e-05
2.777072e-05
2.517158e-05
1.624707e-05
5.234599e-05
4.283936e-05
2.969096e-05
2.274222e-05
-1.641976e-05
2.789289e-05
4.515485e-05
-2.493666e-05
3.385772e-05
5.310926e-06
7.187747e-06
3.318057e-05
5.780364e-06
3.077748e-05
2.656885e-05
3.153292e-05
1.853278e-05
3.908128e-05
1.354266e-05
5.933231e-05
6.400339e-05
3.30918e-05
3.434518e-05
4.539436e-05
3.600824e-05
4.616433e-05
3.057453e-05
2.890331e-05
4.037267e-05
5.47941e-05
5.451518e-05
6.760697e-06
-6.742357e-07
-1.160615e-05
-1.294942e-05
3.271032e-05
4.088734e-05
4.209692e-05
3.040077e-05
4.034505e-05
6.292155e-05
2.516913e-05
-8.819459e-07
6.745904e-06
-2.255667e-05
2.209234e-05
2.295252e-05
3.234035e-05
1.068574e-05
3.189238e-05
6.351575e-05
4.409935e-05
2.559192e-05
1.032804e-05
3.706565e-06
-6.03372e-06
3.957183e-05
-2.139148e-05
1.003912e-05
3.193152e-05
3.25967e-05
-1.50553e-05
-6.128804e-06
1.70652e-05
-1.672211e-05
4.123698e-05
-1.015988e-05
3.372819e-05
2.740022e-05
2.527872e-05
3.70395e-05
3.862918e-05
3.036975e-05
3.053158e-05
2.269e-05
1.920862e-05
7.64793e-05
9.942404e-05
1.988363e-05
2.068973e-05
1.605084e-05
2.612863e-05
2.1827e-05
8.435338e-07
3.811332e-05
7.170397e-07
9.567927e-06
1.086333e-05
3.973462e-05
2.872622e-05
-9.810862e-06
4.54463e-05
3.498745e-05
7.902401e-06
1.043479e-05
1.371258e-05
-1.135276e-05
3.847887e-05
1.254391e-05
9.652661e-06
-4.716227e-06
-6.020187e-06
3.944976e-05
3.604486e-05
-4.975786e-06
-6.981984e-06
1.225372e-05
1.295892e-05
3.992253e-05
2.902638e-05
2.819958e-05
3.047775e-05
2.891766e-05
6.666243e-06
-1.92848e-06
4.631774e-05
4.546442e-05
4.770937e-05
3.755302e-05
3.068814e-05
2.989731e-05
4.504956e-06
-3.8949e-06
8.116838e-06
6.693068e-06
4.354929e-06
2.799327e-06
5.021582e-05
5.633898e-05
3.508636e-05
3.450791e-05
6.263681e-06
6.780094e-06
7.518133e-06
1.824139e-05
8.900766e-06
4.163873e-05
-1.751082e-06
1.845423e-05
1.940269e-05
-5.520342e-08
2.903785e-06
3.745204e-05
-8.705117e-06
2.749645e-05
1.869647e-05
2.6973e-05
-8.489895e-06
1.73617e-05
2.211998e-05
2.345403e-05
-7.000556e-06
-1.097454e-05
-8.275665e-06
1.962839e-05
-5.393428e-06
2.048821e-05
2.3793e-05
-1.289733e-05
3.032491e-05
-3.112053e-06
-4.022068e-06
4.703903e-05
-1.274197e-05
2.573305e-05
2.723087e-05
2.694775e-05
4.134425e-05
4.273959e-05
4.674061e-05
4.8073e-05
3.353289e-05
-2.807279e-06
3.287361e-05
3.127745e-06
3.843262e-06
2.133887e-06
7.275939e-05
-1.428995e-05
4.037677e-05
3.624587e-05
-2.152984e-06
4.996399e-05
6.496606e-05
1.893839e-05
2.419319e-05
1.675506e-05
6.699915e-05
2.782672e-05
2.916465e-05
2.657038e-05
3.579942e-05
3.615604e-05
-4.779666e-07
4.251491e-05
6.058896e-06
1.003197e-05
4.298939e-05
1.234866e-05
8.245524e-06
7.570238e-06
4.046077e-05
2.493256e-05
-1.410227e-05
6.132403e-06
2.01369e-05
1.062232e-05
-1.34719e-05
2.746213e-05
3.758561e-05
-7.72355e-06
2.846086e-05
3.908675e-05
4.314826e-05
4.109613e-05
3.55584e-05
4.767075e-05
4.292258e-05
4.36905e-05
5.673324e-05
2.285144e-05
1.65786e-05
3.238179e-05
2.702648e-05
3.035228e-05
4.222732e-05
5.556847e-05
5.844142e-05
-3.973341e-06
3.766305e-05
5.445786e-06
2.767579e-05
4.827281e-05
2.229685e-05
2.853727e-05
3.209739e-05
3.622883e-05
3.73507e-05
2.489275e-05
-8.60911e-06
4.321104e-05
2.991194e-05
3.498171e-05
4.145655e-06
-8.112539e-07
2.931982e-06
5.997575e-06
3.264119e-05
2.466176e-06
-1.092092e-05
2.612583e-05
2.635504e-05
2.326303e-05
2.46238e-05
2.809158e-05
-5.63212e-06
2.984606e-05
3.073676e-05
9.066304e-06
1.823752e-06
4.425292e-05
4.676369e-05
4.344664e-05
4.346166e-05
4.336426e-05
1.975054e-05
4.672242e-06
2.77264e-05
2.400942e-05
-1.003499e-05
8.018023e-06
8.202941e-06
1.6044e-05
2.691797e-05
1.517114e-05
1.589975e-05
4.356797e-05
3.634398e-05
3.652024e-05
4.28356e-05
4.117924e-05
3.678781e-05
4.254119e-05
3.397649e-05
4.136312e-05
4.324492e-05
2.316698e-05
4.243996e-05
3.227733e-05
3.700118e-05
4.091846e-05
3.763562e-05
-7.342916e-06
1.301917e-05
1.833201e-05
1.427274e-06
7.761607e-05
7.201392e-05
2.161752e-05
-1.754566e-05
3.139546e-05
5.524346e-05
6.111996e-06
3.348518e-05
3.355383e-05
9.873239e-06
1.295865e-05
2.929313e-05
2.061269e-05
3.295657e-05
3.194634e-05
2.626785e-05
8.472751e-06
1.210672e-05
2.766406e-05
3.011451e-05
5.525964e-06
3.237324e-05
1.297412e-05
3.680382e-05
5.036351e-05
1.178105e-05
2.560664e-05
4.490223e-05
5.443317e-06
2.339117e-05
5.236253e-06
1.522482e-05
2.839987e-05
3.188702e-05
3.980273e-05
1.782829e-05
-1.491328e-05
6.117764e-06
-1.099213e-05
2.684165e-05
2.038336e-05
1.690506e-05
1.71563e-05
4.729163e-05
2.29876e-05
4.29902e-05
2.423239e-05
1.508017e-05
7.217903e-08
3.444372e-06
4.738259e-05
6.553324e-05
7.461952e-05
2.540182e-05
-5.525795e-06
2.938474e-05
3.034309e-05
2.304776e-05
3.285991e-05
3.249942e-05
-2.596224e-05
3.384111e-05
-8.7858e-06
2.920046e-05
-6.019904e-06
2.728774e-05
4.622593e-06
-5.285036e-06
4.216484e-05
5.60461e-06
1.002999e-05
3.973565e-05
2.574222e-05
7.198258e-06
3.066252e-05
2.973321e-05
4.118203e-05
1.503941e-05
1.373603e-05
1.32084e-05
1.440235e-05
4.895542e-05
4.709885e-05
3.881552e-05
4.057058e-05
3.845624e-05
3.924516e-05
3.811962e-05
3.119676e-05
8.146592e-05
3.201747e-05
1.343455e-05
3.124219e-05
3.11056e-05
-3.404011e-06
-1.890471e-05
7.100216e-06
4.021069e-06
2.578445e-05
5.784938e-05
1.593526e-05
2.847288e-05
4.786488e-05
1.028845e-05
7.981328e-06
-7.608906e-06
3.057502e-05
2.826301e-05
2.711561e-05
3.112265e-05
3.937183e-05
4.051639e-05
6.734769e-05
4.243544e-05
2.468024e-05
4.646183e-05
4.542592e-05
3.597248e-05
3.937855e-05
2.338402e-05
-1.956695e-06
-7.799321e-06
8.706344e-06
7.441267e-05
1.998958e-05
-1.474674e-06
-9.951763e-06
7.155983e-07
2.197016e-05
1.660829e-05
2.765243e-05
3.078276e-05
-8.831033e-06
6.67698e-05
6.342157e-05
2.991543e-05
8.310467e-06
6.923384e-05
4.039381e-05
4.074542e-05
1.242702e-05
4.481147e-06
3.211708e-05
3.276941e-05
3.488517e-05
-1.51969e-05
-1.004507e-05
4.131885e-05
4.152237e-05
3.07681e-06
4.035268e-05
2.407431e-05
-1.769762e-05
-2.25732e-05
-1.280807e-05
3.553313e-05
1.870377e-06
-1.182723e-05
-1.318602e-05
3.427906e-05
2.888204e-05
6.563888e-05
1.483671e-05
4.734336e-05
2.841677e-05
2.056007e-05
-3.299767e-06
2.209714e-06
1.568131e-05
4.683871e-06
3.323861e-05
3.257996e-05
1.043861e-05
1.395336e-05
2.52765e-05
1.105332e-05
5.030078e-05
6.208247e-06
3.208563e-05
3.545837e-05
3.101003e-05
1.806368e-05
-8.331302e-06
-3.406587e-06
3.604917e-05
2.68164e-05
2.625826e-05
3.051305e-05
6.953808e-06
3.820864e-05
-8.082568e-06
1.659252e-05
6.729952e-05
2.059405e-05
5.850524e-05
-3.745357e-06
2.68383e-06
3.666337e-05
-1.540774e-05
-2.620817e-06
7.994761e-06
2.145507e-05
2.255304e-05
4.672738e-05
4.948488e-05
4.747981e-05
4.592345e-05
4.795169e-05
4.62505e-05
4.900265e-05
4.431235e-05
4.719998e-05
-1.149769e-05
-1.212599e-05
-3.146804e-06
-1.24733e-06
4.447505e-05
4.43712e-05
4.384693e-05
4.544293e-05
4.574951e-05
4.500205e-05
-1.39061e-06
-7.569576e-07
-3.7208e-07
-8.151212e-06
-1.010868e-05
2.975545e-05
8.901681e-06
3.853714e-05
5.470439e-07
-2.497069e-05
5.57447e-05
-5.12788e-06
-4.317679e-06
-1.742962e-05
3.492641e-05
9.661144e-06
1.061361e-05
-1.439227e-06
2.455014e-07
2.652529e-05
2.346162e-05
1.318095e-05
6.12771e-05
5.142082e-05
2.697288e-05
2.445571e-05
2.084419e-07
1.751679e-05
2.541703e-05
2.612823e-05
-1.962924e-06
3.410218e-06
4.033149e-05
8.297396e-06
1.009282e-05
-1.905183e-05
1.779176e-06
-6.196259e-06
1.251964e-05
1.248522e-05
3.512015e-05
3.38954e-05
2.581644e-05
2.578065e-05
2.164443e-05
-2.765861e-06
-4.629567e-06
-9.508971e-07
3.257587e-05
3.268194e-05
3.234034e-05
-1.365116e-05
1.491166e-06
2.045312e-06
2.024309e-05
1.540192e-05
5.532436e-05
1.872406e-05
1.863488e-05
2.086615e-05
3.790183e-05
4.557112e-05
4.98689e-05
4.808636e-06
5.202868e-05
2.82007e-05
4.110222e-05
2.802597e-05
1.877746e-05
8.343789e-06
2.88677e-05
4.522102e-05
1.079535e-05
7.132374e-05
7.082214e-05
3.070626e-05
3.117437e-05
3.698863e-05
4.130412e-05
4.032717e-06
4.987283e-06
6.161322e-06
2.699922e-05
4.324351e-05
3.998408e-05
3.856425e-05
-6.330285e-06
3.408652e-06
3.605974e-06
8.969392e-06
2.482149e-06
3.555255e-05
3.657316e-05
2.960839e-05
2.982969e-05
6.352666e-06
7.018492e-06
-6.580717e-08
1.515956e-05
1.58992e-05
9.159943e-06
3.887096e-05
8.848173e-07
1.560774e-06
2.608533e-05
2.566306e-05
3.103858e-05
2.515763e-05
2.552366e-05
2.904353e-05
2.946357e-05
3.182552e-05
2.586324e-05
2.304949e-05
3.287859e-05
4.385278e-05
3.822216e-05
2.921369e-05
7.146677e-06
3.213816e-05
5.136085e-06
6.658841e-06
1.578248e-05
2.885563e-05
2.682994e-05
2.794192e-05
2.838253e-05
2.650779e-05
3.787141e-05
1.175479e-05
3.484978e-05
4.351502e-05
-1.829484e-05
2.714344e-05
2.60742e-05
2.554652e-05
1.973012e-05
1.971182e-05
-1.467588e-05
2.51934e-05
-5.777516e-06
2.751037e-05
1.943004e-06
3.124424e-05
2.194859e-05
4.336066e-05
4.307169e-05
3.32815e-05
2.077213e-06
1.042999e-06
1.748877e-05
1.036837e-05
2.139901e-05
2.831323e-05
3.69131e-05
3.704551e-05
3.629636e-05
6.480558e-06
1.307675e-05
-7.620669e-06
4.240354e-05
4.258856e-05
3.088226e-05
2.903768e-05
1.068913e-05
1.375752e-06
1.256011e-05
1.444768e-05
3.294291e-05
-3.490506e-05
3.384042e-05
3.38694e-05
5.24466e-05
5.252067e-05
3.662124e-05
1.337211e-06
3.781569e-06
-8.586325e-06
2.218476e-05
2.189244e-05
3.530253e-05
5.922957e-05
-1.546356e-06
2.63862e-05
6.872932e-06
3.590881e-05
2.57778e-06
2.70123e-06
1.893713e-05
2.360649e-05
4.695038e-05
3.059885e-05
-2.013923e-05
-1.913846e-05
4.418142e-05
6.779851e-05
3.026889e-05
-1.89289e-05
-1.489312e-05
3.610718e-05
4.020628e-05
3.745694e-05
3.599075e-05
4.092677e-05
4.02921e-05
4.16219e-05
4.120395e-05
3.814742e-05
3.796032e-05
2.518031e-05
2.869792e-05
2.76096e-05
2.614346e-05
4.053371e-05
3.735905e-05
3.854547e-05
1.896755e-06
3.981956e-05
3.014539e-05
2.428843e-05
2.44626e-05
2.831662e-05
2.591284e-05
2.802024e-06
-5.937962e-06
1.83808e-05
4.494123e-05
4.195076e-05
-1.0948e-05
4.101166e-05
4.082159e-05
4.357255e-05
4.051343e-05
-4.729987e-07
4.686378e-05
1.360222e-06
4.03442e-06
3.757719e-05
4.419407e-05
4.187015e-05
4.233315e-05
4.105463e-05
2.485019e-05
5.418831e-05
6.813052e-05
1.248221e-05
1.316912e-05
8.845763e-06
1.982414e-05
2.214344e-05
2.267294e-05
5.485098e-05
2.479275e-05
2.982863e-06
2.947135e-05
3.198257e-05
1.418078e-05
3.665121e-05
3.728598e-05
4.053126e-05
6.566547e-06
3.147292e-05
3.057763e-05
-1.824323e-06
8.250536e-06
2.618701e-05
2.695913e-05
2.621872e-06
7.127779e-05
1.381558e-05
1.366305e-05
1.311164e-05
1.389431e-05
5.384489e-05
5.908189e-05
4.997772e-05
2.730944e-05
-1.385023e-06
2.833836e-05
-1.027941e-05
-1.174138e-05
2.534009e-06
4.287872e-05
2.843854e-05
-2.308169e-06
2.6807e-05
2.876751e-05
1.811496e-06
1.13953e-05
-9.281977e-06
-8.143787e-06
3.562116e-05
5.149382e-06
5.653567e-06
2.600164e-05
2.920095e-05
1.244375e-05
5.162967e-05
3.587855e-05
3.643861e-05
7.021057e-05
5.960521e-05
2.483402e-05
1.933785e-05
-1.058139e-05
3.108035e-05
3.958424e-05
3.952799e-05
-2.238271e-05
4.230953e-06
3.504969e-05
3.475489e-05
-1.353811e-06
7.140002e-08
7.495362e-05
2.358926e-05
2.270027e-05
1.592917e-05
1.804656e-06
1.68886e-05
-1.246609e-05
3.510493e-06
2.999291e-05
2.71242e-05
8.176241e-06
2.377659e-05
5.293515e-06
5.303499e-06
4.807692e-05
4.759643e-05
2.725761e-05
3.942958e-05
3.968862e-05
2.825395e-05
2.270006e-05
2.881846e-05
2.806834e-05
1.43268e-06
3.082055e-05
3.453989e-05
4.830037e-05
3.625178e-05
1.437108e-05
1.420161e-05
4.150586e-05
3.944541e-05
-9.613452e-07
-1.31748e-06
4.66666e-06
1.60345e-05
1.322427e-05
1.841908e-05
1.976495e-05
6.14915e-05
3.132965e-05
-1.921556e-05
2.102869e-05
1.904501e-05
1.974118e-05
2.22928e-06
2.535012e-05
1.947513e-05
4.840172e-05
4.679983e-05
8.571306e-06
1.568096e-05
1.679034e-05
4.868907e-05
4.048359e-05
3.767255e-05
3.72771e-05
-1.199819e-05
4.229411e-05
4.440495e-05
2.120493e-05
3.238298e-05
3.14841e-05
4.045546e-05
3.981756e-05
2.492549e-05
4.632181e-05
4.649965e-05
5.039007e-05
4.642518e-05
4.807897e-05
4.772645e-05
4.127851e-05
5.291603e-05
3.133396e-05
-2.024126e-06
4.254602e-05
-6.003601e-07
-1.936657e-06
2.973038e-05
2.67425e-05
1.302094e-05
1.275359e-05
4.247765e-06
6.592914e-06
4.43932e-05
-4.395829e-06
2.453401e-05
-6.062503e-06
2.391447e-06
4.089169e-05
-2.839374e-06
2.918127e-05
2.962311e-05
3.819681e-05
1.102583e-05
3.214978e-05
3.953752e-05
1.101287e-05
3.607015e-05
2.762898e-05
1.641739e-05
-1.477657e-05
-1.355332e-05
2.870619e-05
2.878265e-05
4.969249e-05
6.09774e-06
5.331588e-05
6.829313e-05
1.560347e-05
3.706165e-05
3.733758e-05
5.217954e-05
1.924799e-05
2.251686e-05
5.097957e-05
5.033191e-05
3.196106e-05
1.048929e-05
9.274535e-06
3.045822e-06
2.862066e-06
1.024865e-05
5.86089e-06
1.211797e-05
-1.347178e-05
4.967563e-06
3.982731e-06
4.307371e-05
1.039957e-05
7.314115e-06
-1.483185e-06
-2.224562e-05
2.007736e-05
8.398282e-06
4.263806e-05
2.828869e-05
2.691961e-05
2.63449e-05
5.099309e-05
9.133066e-06
6.834293e-05
1.852275e-05
2.848622e-05
4.204859e-05
3.583388e-05
8.739962e-07
2.488792e-05
-4.589267e-06
2.866532e-05
4.417872e-05
1.482975e-05
1.509385e-05
-2.084399e-06
2.952359e-05
3.501315e-05
-4.807234e-06
2.685893e-05
2.608244e-05
8.598782e-06
8.951852e-06
1.006462e-05
2.700975e-05
2.694803e-05
3.432051e-05
5.154616e-05
5.213414e-05
3.247647e-05
-5.18182e-06
4.124748e-05
2.390368e-05
2.321543e-05
3.708654e-05
3.691258e-05
1.306668e-05
7.307679e-06
-4.241315e-06
-3.318458e-06
-1.620255e-06
2.730597e-05
2.84092e-05
5.451886e-06
3.865481e-05
3.899389e-05
3.402343e-05
3.944645e-05
3.834996e-05
4.135603e-05
3.947382e-05
2.588018e-05
3.529809e-05
3.499144e-05
4.833692e-05
5.676311e-05
6.168488e-05
3.166368e-05
1.516583e-06
1.418165e-06
6.329906e-05
1.043888e-05
1.0009e-05
-5.867496e-06
3.369197e-05
7.09358e-05
4.091229e-05
4.088296e-05
2.526641e-06
3.743654e-05
3.846078e-05
5.368244e-07
-5.351673e-06
3.504531e-05
2.195401e-05
3.983555e-05
2.75682e-05
2.716041e-05
6.433688e-06
3.228632e-05
3.985806e-05
3.880154e-05
-1.345147e-05
-1.023151e-05
1.14966e-05
1.215422e-05
4.260641e-05
4.253559e-05
1.202334e-05
4.651007e-05
1.334901e-05
1.257998e-05
1.391824e-05
1.351902e-05
-1.160604e-05
1.992825e-05
2.876434e-05
6.177567e-05
5.93235e-05
3.080659e-05
3.045067e-05
5.886762e-06
7.351606e-06
5.494909e-05
5.439961e-05
-7.984076e-06
3.944092e-05
2.97999e-05
2.926114e-05
3.00374e-05
3.028513e-05
-3.616043e-06
8.355263e-07
7.722719e-06
1.033329e-05
-7.877081e-06
-5.34638e-06
-1.170652e-05
1.958809e-05
1.756499e-05
1.290848e-05
2.139647e-05
4.103799e-05
4.157488e-05
2.621764e-05
1.135697e-05
4.988635e-05
4.255783e-05
5.177011e-05
2.200237e-05
6.914941e-06
6.53278e-06
5.479196e-05
5.347971e-05
2.736334e-05
2.770108e-05
3.621014e-05
-1.80304e-05
-1.681589e-05
3.913554e-05
4.047639e-05
5.643002e-05
3.386421e-05
3.420125e-05
6.519811e-05
6.51259e-05
6.256023e-05
6.361431e-05
7.97426e-05
-2.035954e-05
2.403504e-05
2.192105e-05
6.701619e-06
-3.32975e-06
2.189537e-06
5.079189e-06
-5.130223e-06
3.315753e-05
3.123062e-05
-1.295074e-05
7.640398e-06
3.86335e-05
3.412827e-05
1.714908e-05
1.222307e-05
3.641805e-05
1.851028e-07
3.379477e-05
-1.1613e-05
-1.056915e-05
1.184653e-05
-1.097913e-06
2.850773e-05
-7.443234e-06
-1.128997e-05
1.194412e-05
-3.290901e-06
-2.747426e-06
4.725259e-06
3.761089e-06
3.277077e-06
1.21103e-07
1.437232e-05
1.531234e-05
2.582577e-05
3.684215e-06
3.385765e-06
8.272942e-06
4.156374e-05
4.369083e-05
4.393705e-05
4.328589e-05
1.623283e-05
1.651388e-05
1.119947e-05
9.420911e-06
-8.583258e-07
-2.272364e-06
-5.166441e-06
-3.584639e-06
-3.62301e-06
-4.757977e-06
2.358679e-05
2.695612e-05
2.755126e-05
2.605522e-05
2.576557e-05
2.844753e-05
2.641715e-05
-1.986419e-06
7.10785e-07
-1.70317e-06