/*--------------------------------*- C++ -*----------------------------------*\
| =========                 |                                                 |
| \\      /  F ield         | OpenFOAM: The Open Source CFD Toolbox           |
|  \\    /   O peration     | Version:  2406                                  |
|   \\  /    A nd           | Website:  www.openfoam.com                      |
|    \\/     M anipulation  |                                                 |
\*---------------------------------------------------------------------------*/
FoamFile
{
    version     2.0;
    format      ascii;
    arch        "LSB;label=32;scalar=64";
    class       surfaceScalarField;
    location    "3.94";
    object      phi;
}
// * * * * * * * * * * * * * * * * * * * * * * * * * * * * * * * * * * * * * //

dimensions      [0 3 -1 0 0 0 0];

oriented        oriented;

internalField   nonuniform List<scalar> 
23794
(
-0.004607853
0.005188621
-0.0005807677
-0.00382407
-0.0007837828
-0.002807038
-0.001017033
-0.001572178
-0.00123486
2.945937e-05
-0.001601637
0.000106875
-7.741563e-05
-0.001083667
0.001190542
-0.0004862018
-0.0005974652
0.0004639637
-0.0009501654
-6.212047e-05
0.0005260842
-0.001337849
0.001275729
-0.002282342
0.0009444924
-0.002168362
-0.0001139798
-0.001260359
-0.0009080028
0.0002262349
-0.001486594
0.002132562
-0.001906327
0.003376765
-0.001244203
0.003300441
7.632443e-05
0.002153248
0.001147193
0.0004835307
0.001669717
-0.001410428
0.001893959
-0.003099433
0.001689005
-0.003973145
0.0008737113
-0.00231353
-0.001659615
0.0008385316
-0.003152061
0.003035682
-0.00219715
0.004659722
-0.00162404
0.007363075
-0.002703353
0.01088214
-0.003519062
0.01271236
-0.001830227
0.008136397
0.004575967
-0.001196176
0.009332574
-0.004321659
0.003125483
0.0005021094
-0.004823769
0.005069118
-0.004567008
0.005764045
-0.0006949276
0.004184537
0.001579508
0.0005977668
0.00358677
-0.004704771
0.005302538
-0.009100257
0.004395486
-0.01155342
0.002453159
-0.01285352
0.001300101
-0.01364227
0.0007887486
-0.01416453
0.0005222639
-0.01452558
0.0003610461
-0.01468746
0.0001618814
-0.01474149
5.402889e-05
-0.01473201
-9.477802e-06
-0.01466571
-6.630185e-05
-0.01458103
-8.467419e-05
-0.01443651
-0.0001445188
-0.01424971
-0.0001868031
-0.01400415
-0.0002455629
-0.01373372
-0.000270423
-0.01344525
-0.0002884749
-0.01310253
-0.0003427151
-0.01273917
-0.0003633655
-0.01236697
-0.000372198
-0.01193144
-0.0004355325
-0.01147283
-0.0004586061
-0.01098864
-0.0004841944
-0.01049752
-0.000491122
-0.009985621
-0.000511895
-0.009424509
-0.0005611125
-0.008870721
-0.0005537882
-0.008276025
-0.0005946959
-0.007664168
-0.0006118565
-0.007046411
-0.0006177568
-0.006419664
-0.000626747
-0.005762751
-0.0006569134
-0.005103645
-0.000659106
-0.004436444
-0.000667201
-0.003755492
-0.0006809518
-0.003073716
-0.0006817765
-0.002411585
-0.0006621307
-0.001711199
-0.0007003864
-0.00103057
-0.0006806284
-0.0003779102
-0.0006526602
0.0003152759
-0.0006931861
0.001115838
-0.0008005622
0.001862735
-0.0007468966
0.002582082
-0.0007193476
0.003284037
-0.0007019545
0.003964834
-0.0006807972
0.00464359
-0.0006787563
0.005302121
-0.0006585307
0.005972565
-0.000670444
0.006623467
-0.0006509019
0.007241006
-0.000617539
0.007862996
-0.0006219897
0.008472526
-0.0006095302
0.009059978
-0.0005874521
0.009645145
-0.0005851665
0.01021667
-0.0005715205
0.01073395
-0.0005172803
0.01124729
-0.0005133395
0.01174624
-0.0004989498
0.01220407
-0.0004578344
0.0126634
-0.0004593258
0.01307137
-0.0004079791
0.01345214
-0.0003807664
0.0137945
-0.0003423612
0.01409479
-0.0003002892
0.01439138
-0.0002965927
0.01465139
-0.0002600039
0.0148731
-0.0002217159
0.01505345
-0.0001803444
0.01519259
-0.0001391441
0.01530278
-0.0001101843
0.01535238
-4.960201e-05
0.01537693
-2.454999e-05
0.01531635
6.05752e-05
0.01507882
0.0002375311
0.01468195
0.0003968739
0.01408149
0.0006004575
0.01308075
0.001000745
0.01112177
0.001958977
0.007392315
0.003729455
0.002428215
0.004964099
-0.0006942103
0.003122426
-0.003304538
0.002610327
-0.006923973
0.003619435
-0.007068689
0.0001447167
-0.004111586
-0.002957103
-0.001561137
-0.002550449
0.001838263
-0.0033994
0.005529144
-0.003690881
0.002730797
0.002798347
-0.006425925
0.009156722
-0.01121467
0.004788749
-0.01007981
-0.001134859
-0.007077436
-0.003002379
-0.004589031
-0.002488405
-0.003093486
-0.001495545
-0.001752013
-0.001341473
-1.476819e-05
-0.001737244
0.001843434
-0.001858202
0.002689424
-0.00084599
0.002289574
0.0003998496
0.001567742
0.0007218321
0.000743301
0.0008244411
-3.610007e-06
0.000746911
-0.0005486876
0.0005450776
-0.0006100092
6.132161e-05
-0.0003357498
-0.0002742594
4.247375e-05
-0.0003782235
0.0003105562
-0.0002680824
-0.0007398599
0.001050416
-0.002909524
0.002169664
-0.004697996
0.001788473
-0.00563804
0.0009400439
-0.006064821
0.0004267808
-0.006201711
0.0001368899
-0.006105709
-9.600171e-05
-0.005874257
-0.0002314523
-0.005582734
-0.0002915223
-0.0003941134
-0.004883804
0.005802831
-0.001499794
-0.003949273
-0.001718314
-0.002979197
-0.001987109
-0.001899572
-0.002314485
-0.0002621124
-0.003239097
-0.0004692087
0.0001296807
-0.001658441
0.002379774
-0.0006751008
-0.001580805
0.000278665
-0.001903931
-0.0009436791
0.001748428
-0.002690255
0.003022305
-0.003205551
0.001459789
-0.002777006
-0.0005425248
-0.001636909
-0.0020481
0.0002039587
-0.003327461
0.002531059
-0.004233427
0.004346693
-0.003059837
0.004785521
-0.0003625038
0.003622375
0.002310339
0.001254015
0.004038077
-0.001545186
0.00469316
-0.004329132
0.004472951
-0.005355391
0.001899969
-0.002615874
-0.004399131
0.0009169417
-0.006684877
0.002972037
-0.004252245
0.004590895
-0.003242898
0.007363931
-0.005476389
0.01114738
-0.007302513
0.01415557
-0.004838415
0.01215178
0.006579754
0.002176944
0.01930741
-0.003453861
0.008756288
-0.001693224
-0.006584406
-0.000137011
-0.006123221
0.001151904
-0.001983842
-0.002427802
0.005159214
-0.01036203
0.011521
-0.01711838
0.01205888
-0.02016683
0.007443941
-0.0210277
0.003314024
-0.02127281
0.001545215
-0.02134255
0.0008584876
-0.02132894
0.0005086579
-0.02126883
0.0003009353
-0.02109816
-8.7889e-06
-0.02090743
-0.0001367
-0.02070986
-0.0002070547
-0.02046575
-0.0003104115
-0.02020256
-0.0003478578
-0.01987831
-0.0004687708
-0.01951247
-0.000552644
-0.01908347
-0.0006745627
-0.01862846
-0.0007254317
-0.01816127
-0.0007556681
-0.01763564
-0.0008683439
-0.01708511
-0.000913898
-0.01652975
-0.0009275512
-0.01590172
-0.001063564
-0.01525184
-0.001108484
-0.01457251
-0.001163528
-0.0138847
-0.001178935
-0.01317861
-0.001217986
-0.0124141
-0.001325614
-0.01165965
-0.001308239
-0.01086277
-0.001391575
-0.01004382
-0.001430809
-0.009221328
-0.00144025
-0.008392722
-0.001455353
-0.007527314
-0.001522322
-0.006658571
-0.001527849
-0.005783019
-0.001542752
-0.004892516
-0.001571455
-0.004003691
-0.001570602
-0.003135914
-0.001529907
-0.002228915
-0.001607386
-0.001343879
-0.001565664
-0.0004878665
-0.001508672
0.0004120995
-0.001593152
0.001435586
-0.001824048
0.002403061
-0.001714371
0.003339125
-0.001655412
0.004252438
-0.001615267
0.005143761
-0.001572121
0.006034177
-0.001569172
0.006901181
-0.001525534
0.007782112
-0.001551375
0.008641413
-0.001510203
0.009460092
-0.001436218
0.01028638
-0.001448273
0.01110246
-0.00142561
0.01189085
-0.001375849
0.01267743
-0.001371746
0.01345272
-0.00134681
0.01416426
-0.001228815
0.01487552
-0.0012246
0.01557077
-0.001194208
0.01622021
-0.001107268
0.01687342
-0.001112536
0.01746634
-0.001000906
0.0180361
-0.0009505192
0.01856281
-0.0008690762
0.01904333
-0.0007808082
0.01952655
-0.0007798126
0.01997087
-0.0007043221
0.0203732
-0.0006240477
0.02073337
-0.0005405115
0.02105095
-0.0004567253
0.02134102
-0.0004002535
0.02156852
-0.0002771055
0.0217946
-0.0002506287
0.02199937
-0.0001441886
0.02211658
0.0001203171
0.02218927
0.0003241878
0.0222233
0.0005664258
0.02217289
0.001051148
0.0217892
0.002342667
0.01993953
0.005579131
0.01495275
0.009950872
0.006109138
0.01196604
-0.002219235
0.0109387
-0.003257407
0.004657607
6.718483e-05
-0.003179875
0.001626119
-0.004516037
0.002957492
-0.003881822
0.004789371
-0.005231279
0.007086214
-0.005987724
0.0002980926
0.009586468
-0.01024907
0.01970388
-0.01312277
0.00766245
-0.01103104
-0.003226587
-0.007723202
-0.006310217
-0.005027765
-0.005183842
-0.003441988
-0.003081322
-0.002062168
-0.002721294
-0.0001100015
-0.003689411
0.002498181
-0.004466385
0.004600201
-0.00294801
0.004454481
0.0005455702
0.002659457
0.002516856
0.0008118246
0.002672074
-0.0003625862
0.001921322
-0.001263135
0.001445627
-0.001662967
0.0004611538
-0.001788279
-0.0001489473
-0.002002737
-0.0001637655
-0.002958989
0.0006881692
-0.004952681
0.003044108
-0.00696184
0.004178822
-0.007886827
0.00271346
-0.008081905
0.001135122
-0.00815035
0.0004952262
-0.008085393
7.193279e-05
-0.007799939
-0.0003814554
-0.007293713
-0.0007376782
-0.006621026
-0.0009642094
-0.001212309
-0.005199076
0.006548897
-0.002849615
-0.003945786
-0.002971603
-0.002947821
-0.002985074
-0.002350976
-0.00291133
-0.001837939
-0.003752133
-0.002137381
0.0004291229
-0.002145468
0.002387861
-0.0007948018
-0.002931471
-0.0001319088
-0.002566824
-0.001836875
0.003453394
-0.003643651
0.004829081
-0.004021652
0.001837789
-0.003552061
-0.001012116
-0.002123059
-0.003477102
0.0001399768
-0.005590497
0.002920725
-0.007014176
0.005173086
-0.005312198
0.005775389
-0.0009648065
0.004307682
0.003778046
0.001524556
0.006821203
-0.001134109
0.007351824
-0.003751376
0.007090219
-0.005091219
0.003239812
-0.002572235
-0.006918116
0.0002992698
-0.009556382
0.001731635
-0.005684611
0.003041
-0.004552263
0.005857519
-0.008292907
0.01030758
-0.01175258
0.01324262
-0.007773453
0.01216528
0.007657098
0.004891998
0.02658069
-0.003107532
0.01675582
-0.007756741
-0.001935197
-0.01102828
-0.002851686
-0.01298842
-2.370101e-05
-0.01708395
0.009254744
-0.02225227
0.01668932
-0.02474923
0.01455584
-0.02486272
0.007557432
-0.02481713
0.003268432
-0.02494074
0.001668825
-0.02504763
0.0009653834
-0.02511043
0.0005714601
-0.02512617
0.0003166727
-0.02499305
-0.0001419127
-0.02480569
-0.0003240598
-0.02458664
-0.0004261073
-0.02430674
-0.0005903065
-0.02400743
-0.000647173
-0.02363182
-0.0008443791
-0.02320774
-0.000976717
-0.02270638
-0.001175931
-0.02217377
-0.001258036
-0.02162753
-0.001301905
-0.02100829
-0.001487586
-0.02035915
-0.001563039
-0.01970566
-0.001581039
-0.01896218
-0.001807047
-0.01819261
-0.001878058
-0.01738727
-0.00196886
-0.01657137
-0.001994838
-0.01573348
-0.002055874
-0.01482324
-0.002235858
-0.01392638
-0.002205096
-0.01297585
-0.002342112
-0.01199896
-0.002407694
-0.01101696
-0.002422256
-0.01002702
-0.002445288
-0.008992291
-0.002557051
-0.007953096
-0.002567044
-0.006904582
-0.002591266
-0.005838367
-0.00263767
-0.004772794
-0.002636175
-0.00373125
-0.002571451
-0.002644748
-0.002693888
-0.001584377
-0.002626036
-0.0005581961
-0.002534853
0.0005127483
-0.002664097
0.00172345
-0.00303475
0.002876175
-0.002867096
0.003994251
-0.002773488
0.005085229
-0.002706245
0.006150922
-0.002637814
0.007215329
-0.00263358
0.008250949
-0.002561154
0.009303097
-0.002603523
0.01032822
-0.00253533
0.01130448
-0.002412477
0.01228962
-0.002433409
0.01326128
-0.002397274
0.01419928
-0.00231384
0.01513512
-0.002307588
0.0160564
-0.002268088
0.01690031
-0.002072731
0.01774436
-0.002068642
0.01856831
-0.002018163
0.01933582
-0.001874779
0.02010968
-0.00188639
0.02080879
-0.001700016
0.02148096
-0.001622689
0.02210039
-0.001488508
0.02266254
-0.001342962
0.02322945
-0.001346721
0.02374745
-0.001222318
0.0242162
-0.001092798
0.0246332
-0.0009575112
0.02499925
-0.0008227814
0.02533242
-0.0007334213
0.02559092
-0.0005356098
0.0258434
-0.0005031031
0.02603923
-0.0003400174
0.02609657
6.297233e-05
0.02608857
0.0003321882
0.02604234
0.0006126596
0.02598031
0.001113178
0.02603295
0.002290031
0.02630462
0.005307455
0.0252023
0.01105319
0.01890703
0.01826132
0.01009174
0.01975399
0.006809296
0.007940051
0.009191449
-0.005562029
0.01169572
-0.00702031
0.01201286
-0.004198963
0.01048187
-0.00370029
0.0078516
-0.00335745
-0.0012942
0.01873227
-0.01088877
0.02929846
-0.01293374
0.009707417
-0.01087799
-0.005282332
-0.00702071
-0.0101675
-0.004212633
-0.00799192
-0.002817858
-0.004476096
-0.001745708
-0.003793444
-0.0001431608
-0.005291958
0.002461355
-0.0070709
0.005223592
-0.005710248
0.005577967
0.000191195
0.003438719
0.004656104
0.001023607
0.005087186
-0.0006003822
0.003545312
-0.002142974
0.002988218
-0.003378616
0.001696796
-0.004483681
0.0009561176
-0.00558582
0.0009383735
-0.006895471
0.00199782
-0.008250335
0.004398972
-0.009009337
0.004937825
-0.00923371
0.002937833
-0.009465187
0.001366598
-0.0096792
0.0007092392
-0.009669369
6.210204e-05
-0.009333305
-0.0007175197
-0.008677499
-0.001393484
-0.007745809
-0.0018959
-0.002409221
-0.006139421
0.007743948
-0.004454141
-0.004600842
-0.004510183
-0.003401045
-0.004184871
-0.003160338
-0.003152037
-0.00344422
-0.003468251
-0.003560257
0.0005451601
-0.00265449
0.001482094
-0.001025437
-0.004560525
-0.0007163484
-0.002875912
-0.002772256
0.005509302
-0.004675685
0.00673251
-0.005071829
0.002233933
-0.004520578
-0.001563366
-0.002697088
-0.005300592
0.0001769946
-0.00846458
0.003544188
-0.01038137
0.006199948
-0.007967958
0.006935603
-0.001700461
0.005144237
0.005569412
0.001893655
0.01007178
-0.0006243676
0.009869847
-0.00235382
0.008819672
-0.003663359
0.004549351
-0.002435042
-0.008146434
-0.0009992156
-0.01099221
-0.0007336489
-0.005950177
0.000473686
-0.005759598
0.0033693
-0.01118852
0.008332742
-0.01671602
0.01158753
-0.01102824
0.01049977
0.008744857
0.004626644
0.03245382
-0.007220354
0.02860282
-0.01832503
0.009169474
-0.02449339
0.003316676
-0.02731023
0.002793146
-0.02942891
0.01137342
-0.03021941
0.01747982
-0.02967177
0.01400819
-0.02944824
0.007333907
-0.02982975
0.003649945
-0.03015008
0.001989153
-0.03035356
0.001168859
-0.03043684
0.0006547454
-0.03044958
0.0003294122
-0.03026149
-0.0003300021
-0.03000807
-0.0005774864
-0.02971997
-0.0007142062
-0.02935973
-0.0009505446
-0.02897888
-0.001028016
-0.02850979
-0.00131347
-0.02798436
-0.001502146
-0.02736729
-0.001793009
-0.02671331
-0.001912018
-0.02604467
-0.001970539
-0.02529069
-0.002241567
-0.02450106
-0.002352674
-0.02370686
-0.002375235
-0.02280837
-0.002705539
-0.02187676
-0.002809671
-0.0209034
-0.002942221
-0.01991868
-0.002979553
-0.01890895
-0.003065599
-0.01781102
-0.003333791
-0.01673185
-0.003284266
-0.01558708
-0.003486888
-0.01441222
-0.00358255
-0.01323022
-0.003604253
-0.01203923
-0.003636279
-0.0107946
-0.003801682
-0.009544475
-0.003817171
-0.008282521
-0.003853221
-0.007000898
-0.003919292
-0.005717208
-0.003919865
-0.004462811
-0.003825848
-0.003153462
-0.004003237
-0.001874773
-0.003904725
-0.0006377669
-0.003771859
0.0006403925
-0.003942256
0.002075158
-0.004469516
0.003450771
-0.00424271
0.00479188
-0.004114596
0.006099891
-0.004014256
0.007377363
-0.003915286
0.008653199
-0.003909416
0.00989442
-0.003802376
0.01115796
-0.00386706
0.01238667
-0.003764039
0.01355973
-0.003585539
0.01474457
-0.003618254
0.01591133
-0.003564027
0.01704093
-0.003443447
0.01816979
-0.003436442
0.01927825
-0.003376551
0.02029745
-0.003091933
0.02131772
-0.003088915
0.02231277
-0.003013211
0.0232423
-0.002804305
0.02418032
-0.002824409
0.02502943
-0.002549133
0.02584636
-0.002439612
0.02660121
-0.002243364
0.0272907
-0.00203245
0.02798584
-0.002041858
0.02862246
-0.001858941
0.02920314
-0.001673479
0.02972081
-0.001475184
0.03018083
-0.001282795
0.03060378
-0.001156373
0.03093805
-0.0008698768
0.0312668
-0.0008318606
0.03153215
-0.000605358
0.03162367
-2.854969e-05
0.03161948
0.0003363754
0.03154259
0.0006895482
0.0313658
0.001289967
0.03105524
0.002600591
0.03105025
0.005312448
0.03177377
0.01032968
0.03072776
0.01930732
0.02705224
0.02342951
0.02439552
0.01059678
0.02413137
-0.005297876
0.0244308
-0.00731974
0.02317864
-0.002946804
0.01872147
0.0007568763
0.01053255
0.004831476
-0.001467947
0.03073276
-0.01027646
0.03810696
-0.01251568
0.01194664
-0.01009078
-0.007707231
-0.005374352
-0.01488393
-0.002123806
-0.01124247
-0.0009311274
-0.005668775
-0.000346959
-0.004377612
0.0004211569
-0.006060074
0.002543371
-0.009193114
0.005396007
-0.008562883
0.006183206
-0.0005960042
0.004126119
0.006713191
0.001293448
0.007919856
-0.0009211892
0.005759949
-0.003180946
0.005247975
-0.005150232
0.003666082
-0.006868868
0.002674753
-0.008316688
0.002386194
-0.009472113
0.003153245
-0.01016387
0.005090732
-0.01042838
0.005202332
-0.01079514
0.003304598
-0.01126022
0.001831675
-0.01153338
0.0009823978
-0.01148697
1.569362e-05
-0.01105956
-0.001144928
-0.01025692
-0.002196125
-0.009149355
-0.003003466
-0.003814628
-0.007057352
0.009000895
-0.006397684
-0.005248875
-0.00631866
-0.003900548
-0.005533198
-0.003823397
-0.003229188
-0.004539499
-0.002752149
-0.004515954
0.0005216155
-0.003135062
0.0001012009
-0.001500398
-0.006195188
-0.00158901
-0.0027873
-0.003906071
0.007826362
-0.005926546
0.008752986
-0.006358392
0.002665779
-0.005602827
-0.002318931
-0.003215324
-0.007688095
0.0004057973
-0.0120857
0.004436944
-0.01441252
0.007479496
-0.01101051
0.008369114
-0.00259008
0.006463648
0.007474879
0.002860184
0.01367525
-6.132123e-06
0.01273616
-0.001006547
0.009820086
-0.001867762
0.005410567
-0.002523966
-0.00749023
-0.003461734
-0.01005444
-0.004573768
-0.004838144
-0.004199206
-0.00613416
-0.0009250636
-0.01446266
0.003814009
-0.02145509
0.007589407
-0.01480364
0.006012085
0.01032218
0.0007123998
0.03775351
-0.0143101
0.04362532
-0.02815743
0.02301681
-0.03370257
0.00886181
-0.036093
0.005183575
-0.03677951
0.01205993
-0.03571361
0.01641393
-0.03480516
0.01309974
-0.03500715
0.007535896
-0.03549815
0.004140947
-0.03585806
0.002349061
-0.03611345
0.001424244
-0.03623458
0.0007758822
-0.03628422
0.0003790453
-0.0360832
-0.0005310142
-0.03580925
-0.0008514429
-0.03548995
-0.001033506
-0.03506988
-0.001370608
-0.03464178
-0.001456126
-0.03409095
-0.001864292
-0.03347869
-0.002114407
-0.03274903
-0.002522673
-0.03197582
-0.00268523
-0.03118832
-0.002758035
-0.03029052
-0.003139373
-0.02935048
-0.003292709
-0.02840843
-0.003317281
-0.0273377
-0.003776268
-0.02622404
-0.003923334
-0.02506111
-0.004105148
-0.02388669
-0.004153972
-0.02268211
-0.004270184
-0.02136509
-0.00465081
-0.02007761
-0.00457175
-0.01870505
-0.004859448
-0.01729947
-0.00498813
-0.01588294
-0.005020776
-0.01445704
-0.005062178
-0.01296295
-0.005295776
-0.01146172
-0.005318398
-0.009943002
-0.005371942
-0.008403551
-0.005458744
-0.006857741
-0.005465675
-0.005348393
-0.005335196
-0.003767551
-0.005584079
-0.002220888
-0.005451389
-0.0007253768
-0.00526737
0.0008003906
-0.005468023
0.002500247
-0.006169372
0.00414178
-0.005884242
0.005750571
-0.005723387
0.00731455
-0.005578235
0.008841341
-0.005442077
0.01036897
-0.005437044
0.01185507
-0.005288475
0.01337282
-0.005384813
0.01484194
-0.005233158
0.01625074
-0.004994335
0.01767576
-0.005043273
0.01907025
-0.00495852
0.02042529
-0.004798493
0.02178455
-0.004795701
0.02310948
-0.004701473
0.02432972
-0.004312182
0.02555363
-0.004312821
0.0267434
-0.004202977
0.02785105
-0.003911959
0.02897507
-0.003948424
0.02998647
-0.003560536
0.03095878
-0.003411927
0.03185557
-0.00314015
0.0326706
-0.002847475
0.03349571
-0.002866971
0.03424299
-0.002606221
0.03492833
-0.002358817
0.03553099
-0.002077848
0.03606446
-0.001816263
0.0365571
-0.001649014
0.03692908
-0.001241855
0.03730425
-0.001207037
0.0375916
-0.0008927055
0.03767375
-0.0001106944
0.03763914
0.0003709757
0.03751956
0.0008091373
0.03731436
0.001495164
0.03697705
0.002937903
0.03665382
0.005635675
0.03714207
0.009841428
0.03878258
0.01766681
0.03984884
0.02236324
0.0389149
0.01153072
0.03701019
-0.003393166
0.03526764
-0.005577193
0.0328311
-0.0005102703
0.02708718
0.006500804
0.015018
0.01690065
0.0004901732
0.04526059
-0.007695898
0.04629303
-0.01063577
0.01488651
-0.007885403
-0.01045759
-0.002735521
-0.02003381
0.001354406
-0.01533239
0.002653933
-0.006968302
0.002399095
-0.004122774
0.002140734
-0.005801713
0.003186019
-0.0102384
0.00558654
-0.0109634
0.006609552
-0.001619016
0.004739615
0.008583128
0.001494711
0.01116476
-0.001287869
0.00854253
-0.00410781
0.008067916
-0.00651774
0.006076012
-0.008471871
0.004628884
-0.009967982
0.003882305
-0.01099703
0.004182292
-0.01161062
0.005704324
-0.01208582
0.005677535
-0.01275949
0.003978262
-0.0133519
0.002424086
-0.01366257
0.001293072
-0.01360311
-4.37711e-05
-0.01303415
-0.001713886
-0.01204593
-0.003184351
-0.01070497
-0.004344423
-0.005518702
-0.008065338
0.01046297
-0.008795316
-0.005880135
-0.008503863
-0.004296981
-0.007116351
-0.004042642
-0.003483527
-0.004935151
-0.00185964
-0.004993601
0.0005800663
-0.003591486
-0.001300915
-0.002292172
-0.007494502
-0.002859768
-0.002219704
-0.005317974
0.01028457
-0.00736443
0.01079944
-0.00779294
0.003094288
-0.006725812
-0.00338606
-0.003593474
-0.01082043
0.000876377
-0.01655555
0.005616908
-0.01915305
0.009074635
-0.01446824
0.01013428
-0.003649725
0.00838086
0.009228299
0.004696415
0.01735969
0.001137008
0.01629557
-0.0001093787
0.01106647
-0.0008780163
0.006179204
-0.003624333
-0.004743913
-0.007464314
-0.006214457
-0.0101345
-0.002167956
-0.0105914
-0.005677267
-0.008017693
-0.01703637
-0.003734053
-0.02573873
-0.0009411643
-0.01759653
-0.002440988
0.011822
-0.009937512
0.04525003
-0.02459443
0.05828223
-0.03634605
0.03476843
-0.03981462
0.01233038
-0.04217481
0.00754376
-0.04292247
0.01280759
-0.0422098
0.01570127
-0.04189798
0.01278792
-0.04236009
0.007998009
-0.04289298
0.004673832
-0.04329478
0.002750863
-0.04358554
0.001714999
-0.04367419
0.0008645332
-0.04370475
0.0004096062
-0.04342494
-0.0008108222
-0.04308256
-0.001193818
-0.04268058
-0.001435494
-0.04214889
-0.001902295
-0.0416329
-0.001972117
-0.0409563
-0.002540886
-0.04021584
-0.002854872
-0.03932973
-0.003408785
-0.03839145
-0.003623508
-0.03744448
-0.003705
-0.03635841
-0.004225448
-0.03522519
-0.004425928
-0.03409679
-0.004445685
-0.03280964
-0.005063414
-0.03146639
-0.005266582
-0.03007041
-0.00550113
-0.02866076
-0.005563628
-0.02721939
-0.00571155
-0.0256323
-0.006237899
-0.02409646
-0.006107594
-0.02244677
-0.006509134
-0.02076258
-0.006672323
-0.01906566
-0.006717688
-0.01736044
-0.006767405
-0.01557149
-0.00708472
-0.0137762
-0.007113693
-0.01194988
-0.007198263
-0.0101024
-0.007306219
-0.008235115
-0.007332962
-0.006423491
-0.00714682
-0.004516555
-0.007491015
-0.002638184
-0.00732976
-0.0008246781
-0.007080876
0.0009993873
-0.007292089
0.003015598
-0.008185583
0.004979281
-0.007847926
0.006898669
-0.007642775
0.008762229
-0.007441794
0.01058702
-0.007266866
0.01241799
-0.007268015
0.01419984
-0.007070331
0.01602899
-0.00721396
0.01778563
-0.006989799
0.01948214
-0.006690845
0.02120383
-0.006764955
0.02287175
-0.006626449
0.02449783
-0.006424573
0.02614562
-0.006443491
0.02773285
-0.006288697
0.02919485
-0.005774186
0.03066898
-0.005786948
0.03209936
-0.005633355
0.03342535
-0.005237954
0.03478069
-0.005303757
0.0359978
-0.004777648
0.03716826
-0.004582388
0.03824622
-0.004218108
0.03923076
-0.003832023
0.04023335
-0.003869558
0.04113183
-0.003504704
0.04197054
-0.003197526
0.04270032
-0.002807626
0.04335559
-0.002471529
0.04396321
-0.002256639
0.04442887
-0.001707509
0.04489625
-0.001674424
0.04525593
-0.001252379
0.0453947
-0.0002494648
0.04539749
0.0003681863
0.04529437
0.0009122537
0.04508483
0.001704707
0.04471551
0.003307224
0.04434677
0.00600441
0.04424243
0.009945773
0.04570055
0.01620869
0.04799341
0.02007038
0.04775094
0.01177319
0.04515687
-0.0007990934
0.04236498
-0.002785307
0.03958798
0.002266733
0.03459684
0.01149195
0.02173413
0.02976336
0.007095856
0.05989887
-0.001931006
0.0553199
-0.005310687
0.01826619
-0.002180494
-0.01358779
0.00244833
-0.02466264
0.006483459
-0.01936752
0.007704335
-0.008189178
0.006955978
-0.003374417
0.005424082
-0.004269817
0.004881864
-0.009696181
0.006274661
-0.0123562
0.007156493
-0.002500847
0.005245659
0.01049396
0.001573198
0.01483722
-0.001559217
0.01167494
-0.004784103
0.0112928
-0.007465645
0.008757554
-0.009540102
0.006703341
-0.01117806
0.005520267
-0.01238238
0.005386609
-0.01333429
0.006656232
-0.0141834
0.006526644
-0.01506068
0.004855542
-0.01571217
0.003075575
-0.0160352
0.001616111
-0.01590852
-0.0001704531
-0.01521874
-0.002403665
-0.01407056
-0.004332538
-0.01251369
-0.005901285
-0.007569425
-0.009360419
0.01221558
-0.01165047
-0.006672357
-0.01119193
-0.004740161
-0.009048547
-0.003681763
-0.004541925
-0.004540967
-0.001000436
-0.005053543
0.001092643
-0.004021453
-0.002333005
-0.003421388
-0.008094568
-0.004445729
-0.001195362
-0.006881818
0.01272066
-0.008837187
0.01275481
-0.009191133
0.003448234
-0.007801001
-0.004776192
-0.003817116
-0.01480432
0.001629311
-0.02200198
0.00714173
-0.02466547
0.01105458
-0.01838109
0.0122794
-0.004874543
0.01092153
0.01058618
0.007489007
0.02079221
0.00326091
0.02052367
0.0005820206
0.01374536
-0.001519795
0.00828102
-0.006648876
0.0003851674
-0.01347987
0.0006165376
-0.01778633
0.002138501
-0.01955018
-0.00391341
-0.01868131
-0.01790524
-0.01588235
-0.0285377
-0.01274484
-0.02073404
-0.0166357
0.01571286
-0.025601
0.05421533
-0.03763039
0.07031162
-0.04416248
0.04130052
-0.04644458
0.01461248
-0.04951532
0.0106145
-0.05071413
0.0140064
-0.05050171
0.01548885
-0.05037271
0.01265892
-0.05080801
0.00843331
-0.05134257
0.005208393
-0.05177246
0.003180751
-0.05215188
0.002094418
-0.05223409
0.0009467464
-0.05235316
0.0005286683
-0.05199901
-0.001164963
-0.05160472
-0.001588108
-0.05114028
-0.001899941
-0.05048291
-0.002559664
-0.04990115
-0.002553878
-0.04907695
-0.00336508
-0.04820717
-0.003724656
-0.04714569
-0.004470263
-0.04601464
-0.004754561
-0.04489218
-0.004827461
-0.04359516
-0.005522464
-0.04223555
-0.005785542
-0.0408818
-0.005799434
-0.03934918
-0.006596029
-0.03774117
-0.006874597
-0.03607017
-0.007172133
-0.03436248
-0.007271314
-0.03266239
-0.007411641
-0.03074029
-0.008159993
-0.02891452
-0.007933371
-0.02692475
-0.008498902
-0.02491126
-0.008685807
-0.02288505
-0.008743907
-0.0208156
-0.008836848
-0.01869234
-0.009207982
-0.0165555
-0.009250533
-0.0143684
-0.009385368
-0.01217445
-0.009500167
-0.009888338
-0.009619072
-0.007735666
-0.009299492
-0.005435441
-0.009791239
-0.003146374
-0.009618827
-0.0009403612
-0.009286889
0.00124656
-0.00947901
0.003642141
-0.01058116
0.005995106
-0.01020089
0.008252448
-0.009900117
0.01048032
-0.009669664
0.01267775
-0.009464294
0.01486907
-0.009459337
0.01700567
-0.009206939
0.01922721
-0.009435499
0.02133416
-0.00909675
0.02336732
-0.008723999
0.02543574
-0.008833375
0.02745206
-0.008642769
0.02940702
-0.008379538
0.03137532
-0.008411787
0.03328328
-0.008196661
0.03502986
-0.007520765
0.03679531
-0.007552394
0.03848963
-0.007327682
0.04009275
-0.006841065
0.04172004
-0.006931055
0.04316844
-0.006226048
0.04458343
-0.005997372
0.04585716
-0.005491839
0.04703583
-0.00501069
0.04824288
-0.005076609
0.04929816
-0.004559984
0.05031338
-0.004212751
0.0511633
-0.003657543
0.05194741
-0.003255641
0.05267926
-0.002988485
0.0532082
-0.002236452
0.05376702
-0.002233245
0.05421403
-0.001699386
0.05434602
-0.000381451
0.05431428
0.0003999258
0.05417418
0.001052352
0.05394123
0.001937651
0.05355244
0.00369602
0.05329143
0.00626542
0.05319913
0.01003807
0.05415873
0.01524909
0.05591627
0.01831285
0.05543573
0.01225373
0.05263969
0.001996943
0.04934951
0.0005048754
0.04618653
0.005429714
0.04228622
0.01539226
0.03125968
0.0407899
0.01759746
0.07356108
0.008087693
0.06482967
0.004443131
0.02191075
0.006962691
-0.01610735
0.01140403
-0.02910397
0.01447053
-0.02243402
0.01482717
-0.008545814
0.01342346
-0.001970715
0.01063606
-0.001482413
0.008174165
-0.007234286
0.007909602
-0.01209164
0.00802998
-0.002621225
0.00567059
0.01285335
0.001569511
0.0189383
-0.001623469
0.01486792
-0.005126081
0.01479541
-0.008060437
0.01169191
-0.0103827
0.009025602
-0.01246832
0.007605885
-0.01411114
0.00702943
-0.01552941
0.008074504
-0.01671664
0.007713876
-0.01773709
0.005875988
-0.01839789
0.003736378
-0.01865277
0.00187099
-0.01840337
-0.0004198509
-0.01753619
-0.00327085
-0.0162508
-0.005617926
-0.01454572
-0.007606362
-0.009899571
-0.01092635
0.01410545
-0.01482957
-0.007701138
-0.01441714
-0.005359373
-0.01139031
-0.002710846
-0.007190452
-0.003106867
-0.0006044153
-0.004602742
0.002588519
-0.004579616
-0.002356131
-0.004825984
-0.0078482
-0.006271611
0.0002502642
-0.008447676
0.01489672
-0.01002289
0.01433003
-0.01018828
0.003613616
-0.00862162
-0.006342847
-0.003787424
-0.01963851
0.002750054
-0.02853946
0.009148155
-0.03106357
0.01344152
-0.02267446
0.01478742
-0.006220439
0.01397077
0.01140283
0.01114768
0.0236153
0.006342397
0.02532895
0.002185757
0.017902
-0.002192742
0.01265952
-0.01122407
0.009416497
-0.02168113
0.0110736
-0.02731951
0.00777688
-0.03108424
-0.0001486812
-0.03322411
-0.01576537
-0.03402272
-0.02773909
-0.0344787
-0.02027805
-0.04088401
0.02211817
-0.04792381
0.06125514
-0.05264598
0.07503378
-0.05319294
0.04184749
-0.05565078
0.01707031
-0.05920603
0.01416976
-0.06064728
0.01544765
-0.06074229
0.01558386
-0.06071063
0.01262726
-0.06121544
0.008938119
-0.0618083
0.005801258
-0.06220902
0.003581465
-0.06271536
0.002600757
-0.06270595
0.0009373388
-0.06278629
0.000609005
-0.06240587
-0.001545378
-0.06190698
-0.002087003
-0.06140598
-0.002400938
-0.06053435
-0.003431297
-0.05988047
-0.003207756
-0.05887521
-0.004370334
-0.05785832
-0.004741546
-0.05656392
-0.005764663
-0.05517505
-0.006143438
-0.05385146
-0.006151045
-0.05232574
-0.00704819
-0.05063165
-0.007479629
-0.04901561
-0.007415477
-0.04720278
-0.008408852
-0.04529288
-0.008784498
-0.04325279
-0.009212222
-0.04118447
-0.009339634
-0.03924076
-0.009355355
-0.03684903
-0.01055172
-0.03471092
-0.01007149
-0.03225022
-0.0109596
-0.02989624
-0.01103979
-0.02747047
-0.01116968
-0.02495497
-0.01135235
-0.02245211
-0.01171085
-0.01987063
-0.01183201
-0.0172422
-0.0120138
-0.01467589
-0.01206648
-0.01188675
-0.01240822
-0.009368379
-0.01181786
-0.006552078
-0.01260754
-0.003780643
-0.01239026
-0.001088696
-0.01197884
0.001565112
-0.01213282
0.004444739
-0.01346079
0.007159372
-0.01291552
0.009813486
-0.01255423
0.01251841
-0.01237458
0.0151959