/*--------------------------------*- C++ -*----------------------------------*\
| =========                 |                                                 |
| \\      /  F ield         | OpenFOAM: The Open Source CFD Toolbox           |
|  \\    /   O peration     | Version:  2406                                  |
|   \\  /    A nd           | Website:  www.openfoam.com                      |
|    \\/     M anipulation  |                                                 |
\*---------------------------------------------------------------------------*/
FoamFile
{
    version     2.0;
    format      ascii;
    arch        "LSB;label=32;scalar=64";
    class       surfaceScalarField;
    location    "3.74";
    object      phi;
}
// * * * * * * * * * * * * * * * * * * * * * * * * * * * * * * * * * * * * * //

dimensions      [0 3 -1 0 0 0 0];

oriented        oriented;

internalField   nonuniform List<scalar> 
23794
(
0.000755893
-0.000347415
-0.000408478
0.001749114
-0.0009932212
0.003124656
-0.001375542
0.004095199
-0.0009705429
0.004723143
-0.0006279437
0.004881357
-0.0001582138
0.004482485
0.0003988721
0.0035639
0.0009185843
0.00230713
0.00125677
0.00109377
0.00121336
0.0006249632
0.0004688071
0.001152189
-0.0005272261
0.001392564
-0.0002403748
0.0006391597
0.0007534044
0.0001493016
0.000489858
0.0004215833
-0.0002722816
0.0008197003
-0.000398117
0.0005029636
0.0003167366
-0.0007098195
0.001212783
-0.002131948
0.001422129
-0.003186553
0.001054604
-0.003085662
-0.0001008904
-0.001112407
-0.001973255
0.001189776
-0.002302184
0.002475942
-0.001286166
0.003410036
-0.0009340934
0.005040006
-0.00162997
0.007993415
-0.00295341
0.01098125
-0.002987837
0.0100988
0.0008824516
0.002258571
0.00784023
-0.004715505
0.006974076
-0.002747944
-0.00196756
0.001543998
-0.004291943
0.004319449
-0.002775451
0.00471296
-0.0003935112
0.003230709
0.001482251
0.0002559859
0.002974723
-0.004689339
0.004945325
-0.009266578
0.004577239
-0.01191921
0.002652632
-0.01324104
0.001321827
-0.01396564
0.0007246061
-0.01441032
0.0004446756
-0.01469935
0.000289033
-0.01479038
9.103258e-05
-0.01478631
-4.073723e-06
-0.0147357
-5.06151e-05
-0.01464125
-9.444722e-05
-0.01453055
-0.0001106986
-0.01436265
-0.0001678969
-0.01415579
-0.000206866
-0.01389177
-0.0002640205
-0.01360489
-0.0002868765
-0.01330097
-0.0003039159
-0.01294452
-0.0003564585
-0.01256946
-0.0003750518
-0.01218614
-0.0003833205
-0.01174017
-0.0004459777
-0.01127217
-0.0004679964
-0.01078003
-0.0004921428
-0.01028126
-0.0004987638
-0.009761286
-0.0005199756
-0.009193971
-0.0005673156
-0.008633858
-0.0005601134
-0.00803327
-0.0006005879
-0.007415577
-0.0006176925
-0.006791454
-0.0006241237
-0.006159195
-0.0006322581
-0.005497041
-0.0006621548
-0.004832819
-0.0006642221
-0.004160078
-0.0006727407
-0.003472956
-0.000687122
-0.002783558
-0.0006893975
-0.002113137
-0.0006704212
-0.001397662
-0.0007154756
-0.0007113228
-0.0006863388
-6.14321e-05
-0.0006498907
0.0005715406
-0.0006329727
0.001320559
-0.0007490188
0.00205996
-0.0007394004
0.002784103
-0.000724143
0.003493841
-0.0007097388
0.004186399
-0.0006925573
0.004876845
-0.0006904461
0.00554468
-0.0006678354
0.006223534
-0.0006788535
0.006881869
-0.0006583351
0.007503929
-0.0006220608
0.008129999
-0.0006260699
0.008743558
-0.0006135589
0.009333677
-0.0005901193
0.009920155
-0.0005864776
0.01049322
-0.0005730663
0.01101143
-0.0005182073
0.011526
-0.0005145732
0.01202546
-0.0004994604
0.01248405
-0.0004585867
0.01294346
-0.0004594161
0.01335026
-0.0004067915
0.01373037
-0.000380111
0.01407157
-0.0003412061
0.01436997
-0.000298398
0.01466449
-0.0002945187
0.01492203
-0.0002575436
0.01514071
-0.0002186803
0.01531711
-0.0001763962
0.01545178
-0.0001346673
0.01555706
-0.0001052797
0.01560135
-4.429355e-05
0.01562023
-1.887459e-05
0.01555603
6.419133e-05
0.01532364
0.0002323939
0.0149534
0.0003702351
0.0144459
0.0005075059
0.01373439
0.0007115096
0.01262034
0.001114049
0.01063615
0.001984191
0.00691075
0.0037254
0.00170367
0.00520708
-0.002136527
0.003840197
-0.005283493
0.003146966
-0.008119901
0.002836408
-0.007110452
-0.001009449
-0.00357611
-0.003534343
0.001895044
-0.005471154
0.006554191
-0.004659147
-0.0003230738
0.006877265
-0.01061221
0.01028914
-0.01311931
0.002507093
-0.01016727
-0.002952032
-0.006732464
-0.003434811
-0.004314064
-0.0024184
-0.002638882
-0.001675183
-0.0004708593
-0.002168022
0.002230824
-0.002701683
0.004198196
-0.001967372
0.00390613
0.0002920666
0.003153511
0.0007526183
0.002171863
0.0009816483
-0.0009912354
0.003163098
-0.003616159
0.002624924
-0.003639491
2.333196e-05
-0.002042278
-0.001597213
-0.0001304289
-0.001911849
0.002084752
-0.002215181
0.002804599
-0.0007198476
0.0014915
0.001313099
-0.0008439844
0.002335485
-0.002575293
0.001731308
-0.003438857
0.0008635639
-0.002512104
-0.0009267532
-0.001163126
-0.001348977
-0.0004660225
-0.0006971038
-0.0001542619
-0.0003117606
0.0001569247
-0.0003111867
-0.0001904903
0.0004120952
0.0007209186
-0.001541492
0.002240752
-0.002821878
0.003875297
-0.003010087
0.005046362
-0.002141608
0.00587173
-0.001453312
0.006263775
-0.0005502589
0.00622084
0.000441807
0.005736213
0.001403212
0.004733581
0.002259402
0.003271926
0.002675015
0.002025715
0.001715017
0.001664859
-0.0001663701
0.0009197898
0.0005046949
-0.0004220661
0.00209526
-0.0004510017
0.0005187936
0.0005742028
-0.001297486
0.001245962
-0.001069876
0.001070201
0.000492497
-0.000258066
0.00254105
-0.002821507
0.00398557
-0.004888723
0.00312182
-0.00422391
-0.0007657037
-0.001185687
-0.005011478
0.001435543
-0.004923414
0.002644451
-0.002495074
0.003537394
-0.001827037
0.005134706
-0.003227282
0.00820808
-0.006026784
0.01128662
-0.006066375
0.01222558
-5.651265e-05
0.006262759
0.01380305
-0.002762143
0.01599898
-0.0042938
-0.000435904
-0.00251862
-0.006067123
-0.00115748
-0.00413659
-0.0003266304
-0.001224361
-0.003771189
0.004926809
-0.01090943
0.01011297
-0.01730069
0.01133658
-0.02047312
0.007749669
-0.02128382
0.003463336
-0.02141754
0.001455549
-0.02140851
0.0007155745
-0.0213414
0.0003775684
-0.02124612
0.0001937482
-0.02104867
-0.0001064126
-0.02083931
-0.0002134387
-0.02061385
-0.0002760746
-0.02034102
-0.0003672749
-0.02005358
-0.0003981377
-0.01970678
-0.0005146983
-0.01932162
-0.0005920269
-0.01887458
-0.0007110565
-0.01840363
-0.0007578279
-0.01792127
-0.0007862769
-0.01738215
-0.0008955823
-0.01682028
-0.0009369198
-0.01625407
-0.0009495272
-0.01561594
-0.001084113
-0.01495693
-0.001127005
-0.01427001
-0.001179066
-0.01357488
-0.001193888
-0.01286102
-0.001233841
-0.01209035
-0.001337986
-0.01133003
-0.001320426
-0.01052742
-0.001403202
-0.009702768
-0.001442343
-0.008873858
-0.001453034
-0.0080395
-0.001466616
-0.007168642
-0.001533014
-0.006294413
-0.001538451
-0.00541253
-0.001554624
-0.004514843
-0.001584809
-0.003616885
-0.001587355
-0.002738467
-0.001548839
-0.001814109
-0.001639834
-0.0009218901
-0.001578557
-7.065817e-05
-0.001501123
0.0007614229
-0.001465054
0.001725234
-0.00171283
0.002683488
-0.001697655
0.003625541
-0.001666196
0.004549272
-0.001633469
0.005455315
-0.001598601
0.006360666
-0.001595797
0.007240064
-0.001547234
0.00813243
-0.00157122
0.009001962
-0.001527867
0.009827384
-0.001447483
0.01065988
-0.001458568
0.01148217
-0.001435843
0.01227517
-0.001383122
0.01306485
-0.001376161
0.01384322
-0.001351429
0.01455723
-0.00123222
0.01527129
-0.001228634
0.01596857
-0.001196738
0.01662024
-0.001110263
0.01727505
-0.001114221
0.01786808
-0.00099982
0.01843866
-0.0009506936
0.01896565
-0.000868195
0.01944569
-0.0007784458
0.01992844
-0.0007772605
0.02037188
-0.0007009917
0.02077279
-0.0006195863
0.02113064
-0.0005342488
0.0214454
-0.0004494195
0.02173213
-0.0003920162
0.02195593
-0.0002680939
0.02217877
-0.0002417125
0.02237888
-0.0001359206
0.02248896
0.0001223168
0.02255157
0.0003076283
0.02257694
0.0004821305
0.02253914
0.0007493134
0.02234464
0.001308543
0.02176166
0.00256717
0.0196738
0.005813267
0.01403347
0.0108474
0.004145492
0.01372818
-0.004056021
0.01134848
-0.004505571
0.003285957
-0.001257899
-0.00425712
0.0004869036
-0.005279145
0.003743428
-0.008727678
0.005570909
-0.006486628
-0.004306803
0.01675498
-0.0142006
0.02018293
-0.01420967
0.002516168
-0.01082304
-0.006338661
-0.007009642
-0.00724821
-0.004448999
-0.004979042
-0.002758027
-0.003366155
-0.0006016501
-0.004324399
0.002328855
-0.005632188
0.005451765
-0.005090282
0.006361033
-0.0006172016
0.004735012
0.00237864
0.0008036816
0.004912978
-0.003702214
0.007668994
-0.005329186
0.004251896
-0.004564186
-0.0007416683
-0.002744051
-0.003417347
-0.0004073733
-0.004248527
0.002337652
-0.004960206
0.003609257
-0.001991452
0.002642284
0.002280072
-0.001231332
0.0062091
-0.004468084
0.00496806
-0.004464733
0.0008602137
-0.002924876
-0.002466611
-0.00181464
-0.002459214
-0.001120397
-0.001391347
-0.0007487479
-0.0006834096
-0.0006646769
-0.0003952577
-0.0001342486
0.0005659387
0.001543111
-0.003650541
0.002665274
-0.004921213
0.004602722
-0.004947534
0.006002643
-0.003541529
0.007000834
-0.002451504
0.007447326
-0.0009967511
0.007315443
0.0005736898
0.006777339
0.001941316
0.005948629
0.003088112
0.004659136
0.003964508
0.003028985
0.003345168
0.001613629
0.001248986
-0.0001203966
0.002238721
-0.001015231
0.002990095
-0.0001299352
-0.0003665021
0.001093869
-0.00252129
0.001865284
-0.00184129
0.001669303
0.0006884781
0.0002617226
0.003948631
-0.002396184
0.006643477
-0.004971542
0.005697178
-0.004310901
-0.001426345
-0.001190815
-0.008131563
0.0009245828
-0.007038812
0.001606693
-0.003177184
0.002117586
-0.002337929
0.003409383
-0.004519079
0.006695729
-0.009313129
0.01040788
-0.009778526
0.01148048
-0.00112911
0.007071149
0.01821238
-0.001147002
0.02421713
-0.008066526
0.00648362
-0.01169918
-0.002434464
-0.01340251
-0.002433268
-0.01476047
0.0001335981
-0.01832934
0.008495686
-0.02298487
0.0147685
-0.02530818
0.01365989
-0.02530266
0.00774414
-0.02507184
0.003232517
-0.02511757
0.001501278
-0.02517279
0.0007708016
-0.02518532
0.0003900921
-0.0251582
0.0001666325
-0.02497631
-0.0002883065
-0.02474634
-0.0004434067
-0.02448729
-0.0005351238
-0.02417339
-0.0006811758
-0.02384379
-0.000727733
-0.02344062
-0.000917873
-0.0229927
-0.001039943
-0.02246968
-0.001234081
-0.02191717
-0.001310331
-0.02135221
-0.001351244
-0.02071659
-0.001531199
-0.02005378
-0.00159973
-0.0193871
-0.001616213
-0.01863154
-0.001839671
-0.01785116
-0.001907385
-0.017037
-0.001993225
-0.0162127
-0.00201819
-0.01536593
-0.002080607
-0.01444902
-0.002254899
-0.01354559
-0.002223856
-0.01258904
-0.002359745
-0.01160634
-0.002425046
-0.01061779
-0.002441585
-0.009622274
-0.002462132
-0.008582483
-0.002572805
-0.007538246
-0.002582687
-0.006483735
-0.002609135
-0.005410438
-0.002658106
-0.004335326
-0.002662467
-0.003281675
-0.002602491
-0.002175845
-0.002745664
-0.001106788
-0.002647614
-8.410658e-05
-0.002523804
0.0009201457
-0.002469306
0.002073376
-0.00286606
0.003222128
-0.002846408
0.004351611
-0.002795679
0.005457484
-0.002739343
0.006541492
-0.002682609
0.007623685
-0.00267799
0.008673482
-0.002597031
0.009738269
-0.002636007
0.01077423
-0.002563832
0.01175687
-0.002430119
0.01274775
-0.002449446
0.01372512
-0.002413218
0.01466689
-0.002324888
0.01560466
-0.002313933
0.01652812
-0.002274886
0.01737351
-0.002077614
0.01821955
-0.00207467
0.01904454
-0.002021729
0.01981345
-0.001879177
0.02058796
-0.001888733
0.02128586
-0.001697721
0.02195787
-0.001622699
0.02257638
-0.001486706
0.02313653
-0.0013386
0.02370155
-0.001342272
0.02421738
-0.001216825
0.02468303
-0.001085243
0.0250959
-0.0009471129
0.0254571
-0.0008106206
0.02578455
-0.0007194671
0.02603691
-0.0005204528
0.02628305
-0.0004878572
0.02647202
-0.0003248867
0.02652244
7.189875e-05
0.02650823
0.0003218353
0.02645724
0.0005331227
0.02637399
0.0008325586
0.02624395
0.001438589
0.02618767
0.002623442
0.02626392
0.005737021
0.02469946
0.01241186
0.01772303
0.02070461
0.009191118
0.01988039
0.006492903
0.005984172
0.008323802
-0.006088019
0.009254275
-0.006209619
0.007600326
-0.007073729
0.003148046
-0.002034348
-0.007403651
0.02730667
-0.01481785
0.02759714
-0.0140699
0.00176821
-0.01023299
-0.01017557
-0.005935046
-0.01154615
-0.00335944
-0.007554648
-0.001994101
-0.004731494
-0.0003780018
-0.005940498
0.002078342
-0.008088532
0.005389023
-0.008400963
0.006736739
-0.001964918
0.004038223
0.005077156
-0.001574693
0.01052589
-0.005794843
0.01188914
-0.006558585
0.005015637
-0.005704085
-0.001596169
-0.003526331
-0.005595102
-0.0008525756
-0.006922283
0.002424823
-0.008237605
0.003988788
-0.003555417
0.003354006
0.002914854
-0.001149365
0.01071247
-0.005315713
0.009134407
-0.005117303
0.0006618034
-0.003714164
-0.003869749
-0.003122275
-0.003051102
-0.002929983
-0.001583638
-0.002945061
-0.0006683324
-0.00268724
-0.000653078
-0.001278378
0.0007881823
0.001844844
-0.006283568
0.003107308
-0.007240339
0.005492247
-0.007332473
0.00721579
-0.005265072
0.008413383
-0.003649097
0.008911681
-0.001495049
0.00869126
0.0007941108
0.007934359
0.002698218
0.006942204
0.004080267
0.005630967
0.005275745
0.003696122
0.005280014
0.001316503
0.003628605
-0.0007922848
0.004347508
-0.0009856308
0.003183441
0.0003349602
-0.001687093
0.001490616
-0.003676946
0.002395849
-0.002746524
0.002205795
0.0008785328
0.0007647061
0.005389719
-0.00157964
0.008987823
-0.004185424
0.008302962
-0.003956677
-0.001655092
-0.001698343
-0.0103899
-0.0007880013
-0.007949154
-0.001108535
-0.00285665
-0.001378962
-0.002067503
0.0001391535
-0.006037195
0.003968687
-0.01314266
0.008254072
-0.01406391
0.008945275
-0.001820314
0.00512368
0.02203397
-0.003449488
0.0327903
-0.01567405
0.01870819
-0.02383355
0.005725029
-0.02704073
0.0007739154
-0.02889361
0.001986482
-0.03049079
0.01009287
-0.03107543
0.01535313
-0.03040783
0.0129923
-0.02993262
0.007268922
-0.03014515
0.003445049
-0.03038061
0.001736743
-0.03049649
0.0008866809
-0.03050743
0.0004010265
-0.03046135
0.0001205598
-0.03021382
-0.0005358445
-0.02991364
-0.000743584
-0.0295793
-0.0008694626
-0.02917943
-0.001081048
-0.02876476
-0.0011424
-0.02826377
-0.001418861
-0.02771072
-0.001592995
-0.02706846
-0.001876345
-0.02639181
-0.00198698
-0.02570173
-0.002041323
-0.02492872
-0.002304207
-0.02412337
-0.00240508
-0.0233142
-0.002425381
-0.02240182
-0.002752058
-0.02145792
-0.002851278
-0.02047471
-0.002976437
-0.01948081
-0.00301209
-0.01846135
-0.003100066
-0.01735659
-0.00335966
-0.016271
-0.003309451
-0.01512056
-0.003510183
-0.01394061
-0.003604994
-0.01275286
-0.003629338
-0.01155772
-0.003657273
-0.0103099
-0.00382062
-0.009057047
-0.00383554
-0.007791719
-0.003874463
-0.006505679
-0.003944146
-0.005214654
-0.003953493
-0.003948763
-0.003868382
-0.002618903
-0.004075524
-0.001331301
-0.003935217
-9.550158e-05
-0.003759603
0.001122555
-0.003687362
0.002508309
-0.004251814
0.003887599
-0.004225697
0.005245773
-0.004153853
0.006572678
-0.004066247
0.007871139
-0.00398107
0.009166021
-0.003972873
0.01042138
-0.003852386
0.01169713
-0.003911758
0.01293603
-0.003802736
0.01411433
-0.003608422
0.01530423
-0.00363934
0.0164763
-0.003585292
0.01760931
-0.003457893
0.01873973
-0.003444358
0.01985025
-0.0033854
0.02087093
-0.003098301
0.02189341
-0.003097149
0.02288965
-0.003017963
0.02382113
-0.002810658
0.02476004
-0.002827641
0.02560817
-0.002545852
0.0264254
-0.002439926
0.02717969
-0.002241001
0.02786768
-0.002026589
0.02856141
-0.002036002
0.02919625
-0.00185166
0.02977406
-0.001663061
0.03028768
-0.001460727
0.03074302
-0.001265962
0.03116095
-0.001137397
0.03148863
-0.0008481282
0.03181157
-0.0008108012
0.03206986
-0.0005831798
0.03215543
-1.36646e-05
0.03214678
0.0003304765
0.03207678
0.0006031274
0.03192247
0.0009868722
0.03162744
0.001733611
0.03120551
0.003045377
0.03105229
0.005890238
0.03160163
0.01186253
0.030367
0.02193925
0.02679015
0.02345723
0.02413892
0.008635406
0.02300687
-0.004955965
0.02123051
-0.004433268
0.01463195
-0.0004751644
0.00366209
0.008935511
-0.007789402
0.03875817
-0.01395493
0.03376267
-0.01353888
0.001352164
-0.00893498
-0.01477947
-0.003927074
-0.01655406
-0.001182639
-0.01029908
-0.000140031
-0.005774102
0.0004589198
-0.006539449
0.002040861
-0.009670473
0.005000682
-0.01136078
0.006176476
-0.003140712
0.002198991
0.009054641
-0.004222379
0.01694726
-0.007505545
0.01517231
-0.007974297
0.005484389
-0.007172762
-0.002397704
-0.004594379
-0.008173484
-0.001523925
-0.009992736
0.002350825
-0.01211236
0.004386895
-0.005591487
0.004124559
0.00317719
-0.0007455459
0.01558258
-0.005891095
0.01427996
-0.00605385
0.0008245586
-0.004999854
-0.004923746
-0.005160559
-0.002890397
-0.005635021
-0.001109177
-0.005516562
-0.0007867913
-0.004202738
-0.001966902
-0.003636271
0.0008937491
0.002211295
-0.009388612
0.003679216
-0.01002581
0.006534074
-0.01018733
0.008667919
-0.007398917
0.01016712
-0.005148302
0.01075999
-0.002087912
0.0104409
0.001113199
0.009426667
0.00371245
0.008132018
0.005374916
0.006611339
0.006796424
0.00429954
0.007591813
0.00117558
0.006752565
-0.0008952838
0.006418372
-0.0007274897
0.003015646
0.0005967236
-0.003011307
0.001993095
-0.005073318
0.003107138
-0.003860566
0.002835719
0.001149952
0.001165366
0.007060073
-0.0008303096
0.0109835
-0.003142126
0.01061478
-0.003626028
-0.00117119
-0.003223426
-0.0107925
-0.004228504
-0.006944076
-0.005988251
-0.001096902
-0.006839191
-0.001216563
-0.005229411
-0.007646975
-0.0009203624
-0.01745171
0.003095682
-0.01807995
0.003820647
-0.002545278
0.0008028727
0.02505175
-0.009753007
0.04334618
-0.02445646
0.03341164
-0.0329862
0.01425477
-0.03575601
0.003543723
-0.03748587
0.00371634
-0.03776847
0.01037547
-0.0366566
0.01424126
-0.03563517
0.01197086
-0.03557044
0.007204195
-0.03589943
0.003774034
-0.03614573
0.001983049
-0.03630318
0.001044124
-0.03634106
0.0004389149
-0.03631789
9.738441e-05
-0.03604442
-0.0008093095
-0.03570971
-0.001078299
-0.03533233
-0.001246843
-0.03486398
-0.001549395
-0.03439312
-0.001613263
-0.03380285
-0.002009132
-0.03315639
-0.002239457
-0.0323952
-0.002637534
-0.0315935
-0.002788672
-0.03077902
-0.00285581
-0.02985727
-0.003225954
-0.02889743
-0.003364922
-0.02793642
-0.003386385
-0.02684804
-0.003840438
-0.02571859
-0.003980727
-0.02454299
-0.00415204
-0.02335683
-0.004198254
-0.02213953
-0.004317365
-0.0208137
-0.004685491
-0.01951803
-0.004605118
-0.01813859
-0.004889626
-0.01672722
-0.005016363
-0.01530441
-0.005052146
-0.01387519
-0.005086494
-0.01237946
-0.005316355
-0.01087808
-0.00533692
-0.009359769
-0.005392769
-0.007820551
-0.005483363
-0.006272867
-0.005501177
-0.004756159
-0.00538509
-0.003155408
-0.005676275
-0.001600984
-0.00548964
-0.000103621
-0.005256966
0.00137454
-0.005165523
0.003040768
-0.005918043
0.004695251
-0.005880179
0.006325466
-0.005784068
0.007909612
-0.005650394
0.00945632
-0.005527778
0.01100044
-0.005516997
0.01249794
-0.005349877
0.01402635
-0.005440177
0.01550482
-0.005281202
0.01691772
-0.005021323
0.0183475
-0.005069119
0.0197474
-0.004985186
0.02110582
-0.004816321
0.02246628
-0.00480481
0.02379309
-0.004712217
0.02501468
-0.004319893
0.02624084
-0.004323301
0.02743149
-0.004208613
0.02854135
-0.003920522
0.0296659
-0.003952193
0.03067559
-0.003555538
0.03164794
-0.003412276
0.03254342
-0.00313648
0.03335591
-0.002839081
0.03417855
-0.002858643
0.03492284
-0.002595951
0.03560398
-0.002344198
0.03620079
-0.002057545
0.03672771
-0.001792882
0.03721295
-0.001622632
0.03757543
-0.00121061
0.03794168
-0.001177046
0.03821896
-0.0008604667
0.03829209
-8.67882e-05
0.03825251
0.0003700501
0.03813345
0.0007221867
0.03793685
0.001183473
0.03758685
0.002083612
0.03711735
0.003514879
0.03661358
0.006394009
0.03704368
0.01143242
0.03872915
0.02025378
0.03951087
0.02267551
0.03801369
0.01013259
0.0351845
-0.002126778
0.03175344
-0.001002212
0.02291152
0.00836676
0.007422862
0.02442417
-0.005212224
0.05139325
-0.01074422
0.03929467
-0.01093914
0.001547082
-0.006031287
-0.01968733
-0.0009378348
-0.02164751
0.002491244
-0.01372816
0.002922133
-0.00620499
0.002425246
-0.006042563
0.002768529
-0.01001376
0.004968315
-0.01356057
0.005326573
-0.00349897
-6.948917e-07
0.01438191
-0.006633999
0.02358057
-0.009323745
0.01786206
-0.009938053
0.006098698
-0.009108588
-0.003227169
-0.006058475
-0.0112236
-0.002515834
-0.01353538
0.00201139
-0.01663958
0.004673127
-0.008253224
0.004840556
0.003009761
-0.0001119501
0.02053508
-0.0062808
0.02044881
-0.007225132
0.00176889
-0.006597211
-0.005551667
-0.007342956
-0.002144651
-0.007965589
-0.000486544
-0.007278157
-0.001474223
-0.00513759
-0.004107469
-0.006562567
0.0009222012
0.002834296
-0.01314511
0.004238043
-0.01334165
0.00764844
-0.01359773
0.01036274
-0.01011322
0.01232141
-0.007106971
0.01305888
-0.002825378
0.0126423
0.001529775
0.0113218
0.005032951
0.00963023
0.007066485
0.007795327
0.008631327
0.005075073
0.01031207
0.001437299
0.01039034
-0.0005242537
0.008379925
-0.0002933493
0.002784742
0.0009508393
-0.004255495
0.002831596
-0.006954075
0.004244042
-0.005273013
0.003789079
0.001604915
0.001589618
0.009259534
-0.0004603061
0.01303342
-0.002579869
0.01273434
-0.004150113
0.0003990542
-0.006543602
-0.008399009
-0.01006309
-0.003424593
-0.01321168
0.002051693
-0.01432162
-0.0001066248
-0.01292538
-0.009043214
-0.009063246
-0.02131385
-0.005041947
-0.02210125
-0.004320738
-0.003266487
-0.009300192
0.0300312
-0.02039233
0.05443831
-0.03386593
0.04688524
-0.03975258
0.02014142
-0.04180181
0.005592952
-0.04374451
0.005659038
-0.04406512
0.01069608
-0.04330948
0.01348563
-0.04284856
0.01150994
-0.0430332
0.00738883
-0.04337127
0.004112108
-0.04362744
0.002239219
-0.04379853
0.00121521
-0.04377116
0.0004115459
-0.04372058
4.680939e-05
-0.04336721
-0.001162678
-0.0429541
-0.001491416
-0.04248269
-0.001718245
-0.04189343
-0.002138655
-0.04132889
-0.002177808
-0.04060469
-0.002733328
-0.03982431
-0.003019841
-0.03890095
-0.003560896
-0.0379291
-0.003760517
-0.03695012
-0.003834792
-0.03583519
-0.004340885
-0.03467861
-0.0045215
-0.03352755
-0.004537447
-0.03221866
-0.005149331
-0.03085596
-0.005343423
-0.0294444
-0.005563599
-0.02802022
-0.005622438
-0.02656226
-0.005775318
-0.0249637
-0.006284059
-0.02341677
-0.006152041
-0.02175764
-0.006548755
-0.02006527
-0.006708736
-0.01835943
-0.006757983
-0.01665036
-0.006795572
-0.01485976
-0.007106948
-0.01306602
-0.007130663
-0.0112439
-0.007214892
-0.00940256
-0.0073247
-0.00754207
-0.007361667
-0.005731996
-0.007195164
-0.003809334
-0.007598937
-0.001926113
-0.00737286
-0.0001069045
-0.007076175
0.00168845
-0.006960877
0.003692756
-0.007922349
0.00567747
-0.007864893
0.007618509
-0.007725108
0.009497082
-0.007528967
0.0113367
-0.0073674
0.01318087
-0.007361162
0.01497309
-0.007142095
0.01681464
-0.007281731
0.01858233
-0.00704889
0.02028352
-0.006722516
0.02201133
-0.00679693
0.02368607
-0.006659924
0.0253166
-0.006446848
0.02696578
-0.006453989
0.02855534
-0.006301785
0.03001949
-0.005784044
0.03149671
-0.005800519
0.03292812
-0.005640017
0.03425787
-0.005250276
0.035614
-0.005308318
0.03682939
-0.004770929
0.03800069
-0.004583579
0.03907742
-0.004213209
0.04005965
-0.003821309
0.04105994
-0.003858937
0.04195565
-0.00349166
0.04279018
-0.003178729
0.0435136
-0.002780965
0.04416194
-0.002441226
0.04476149
-0.002222178
0.04521745
-0.001666571
0.04567514
-0.001634733
0.04602551
-0.001210842
0.0461535
-0.0002147718
0.04614378
0.0003797645
0.04604131
0.0008246559
0.04583955
0.001385241
0.04544044
0.002482716
0.04491406
0.004041264
0.04430562
0.007002441
0.04409585
0.0116422
0.04561242
0.01873721
0.04740184
0.02088609
0.04632724
0.01120719
0.04266775
0.001532712
0.03906296
0.002602582
0.03141543
0.01601429
0.01468559
0.04115401
0.0005147889
0.06556405
-0.003860013
0.04366947
-0.004393796
0.002080865
9.759321e-05
-0.02417872
0.004789282
-0.0263392
0.007583363
-0.01652224
0.007460967
-0.006082594
0.005884673
-0.004466269
0.004661903
-0.008790986
0.005618528
-0.01451719
0.004568412
-0.002448855
-0.002221739
0.02117206
-0.008916479
0.03027531
-0.01167249
0.02061807
-0.01271306
0.007139271
-0.01184761
-0.004092625
-0.008134125
-0.01493708
-0.003999568
-0.01766993
0.001203744
-0.02184289
0.004607099
-0.01165658
0.005303703
0.002313156
0.0006384244
0.02520036
-0.006299343
0.02738657
-0.008399211
0.003868758
-0.008278838
-0.005672041
-0.009394778
-0.001028711
-0.009946802
6.547967e-05
-0.008882553
-0.002538472
-0.006265387
-0.006724636
-0.009993657
0.0008995063
0.003729232
-0.01777385
0.004793201
-0.01723534
0.008946976
-0.0177515
0.01236542
-0.01353167
0.01487099
-0.009612538
0.01577538
-0.003729763
0.0153027
0.002002449
0.01367356
0.006662096
0.01150822
0.009231828
0.009263865
0.01087568
0.006164659
0.01341127
0.00218321
0.01437179
-2.633082e-06
0.01056577
0.0002252351
0.002556874
0.001722797
-0.005753057
0.004234319
-0.009465596
0.005945941
-0.006984635
0.005242416
0.00230844
0.00221412
0.01228783
-0.0005285391
0.01577608
-0.003203104
0.01540891
-0.006618476
0.003814426
-0.0124372
-0.002580285
-0.01851544
0.002653648
-0.02278521
0.006321459
-0.02422505
0.001333218
-0.02386475
-0.009403514
-0.02161677
-0.02356182
-0.01847865
-0.02523937
-0.01808674
-0.003658399
-0.02507025
0.03701471
-0.03543088
0.06479895
-0.04396251
0.05541686
-0.04669992
0.02287883
-0.04904836
0.007941394
-0.05143479
0.008045462
-0.05213583
0.01139712
-0.05180607
0.01315587
-0.05147409
0.01117796
-0.05161314
0.007527883
-0.05191954
0.004418506
-0.05218971
0.002509383
-0.05241999
0.00144549
-0.05238642
0.0003779808
-0.0523997
6.008706e-05
-0.05193219
-0.001630182
-0.05145918
-0.001964434
-0.05091034
-0.002267079
-0.05018579
-0.002863213
-0.04954479
-0.002818799
-0.04866275
-0.003615375
-0.04774556
-0.00393703
-0.04663884
-0.004667618
-0.045467
-0.004932355
-0.04430597
-0.004995825
-0.04297388
-0.005672968
-0.0415865
-0.005908881
-0.04020469
-0.005919256
-0.03864543
-0.006708595
-0.03701349
-0.006975365
-0.03532343
-0.007253658
-0.0335972
-0.007348669
-0.03187579
-0.007496729
-0.02993896
-0.008220884
-0.02809801
-0.00799299
-0.02609516
-0.008551607
-0.02406896
-0.008734938
-0.02202946
-0.008797482
-0.01995117
-0.008873857
-0.01782389
-0.009234236
-0.01568701
-0.009267535
-0.0135044
-0.009397512
-0.01132172
-0.009507372
-0.009051293
-0.009632097
-0.00691568
-0.009330777
-0.00460831
-0.009906307
-0.002320062
-0.009661108
-0.0001043873
-0.00929185
0.002079718
-0.009144982
0.004487787
-0.01033042
0.006863215
-0.01024032
0.009136306
-0.009998198
0.01136827
-0.009760933
0.01357906
-0.009578184
0.01578711
-0.009569215
0.01793787
-0.009292851
0.02017638
-0.009520245
0.02229586
-0.009168369
0.02433433
-0.008760992
0.02641046
-0.008873061
0.02843316
-0.008682623
0.03039332
-0.008407003
0.03236313
-0.008423804
0.03427221
-0.008210858
0.03602187
-0.007533706
0.03779081
-0.007569464
0.03948606
-0.007335263
0.04109377
-0.006857985
0.04272131
-0.006935857
0.04416699
-0.006216607
0.0455827
-0.005999292
0.04685439
-0.005484895
0.04802984
-0.004996765
0.04923342
-0.005062515
0.05028472
-0.004542954
0.05129414
-0.004188154
0.05213548
-0.003622305
0.05291043
-0.003216172
0.05363177
-0.002943523
0.05414764
-0.002182443
0.05469361
-0.002180703
0.05512483
-0.001642059
0.05524285
-0.0003327921
0.05519809
0.0004245235
0.0550469
0.0009758423
0.05479773
0.001634413
0.05434067
0.002939775
0.0538054
0.004576534
0.0532744
0.007533443
0.05301564
0.01190096
0.05397807
0.01777478
0.05515279
0.01971136
0.05385966
0.01250033
0.04977562
0.005616746
0.04588085
0.006497358
0.04064076
0.02125437
0.02646482
0.05532995
0.01312192
0.07890696
0.006816704
0.04997468
0.006184435
0.002713133
0.00999296
-0.02798724
0.01348287
-0.02982911
0.01490491
-0.01794429
0.01369945
-0.004877126
0.01103332
-0.001800147
0.00784254
-0.005600202
0.006840726
-0.01351538
0.003927597
0.000464274
-0.004288898
0.02938856
-0.01150776
0.03749417
-0.01504297
0.02415328
-0.01666507
0.008761373
-0.01590187
-0.004855826
-0.01117026
-0.01966869
-0.006203628
-0.02263657
-0.000298125
-0.02774839
0.00400318
-0.01595788
0.005397346
0.00091899
0.001643999
0.02895371
-0.005768382
0.03479895
-0.009297778
0.007398155
-0.009982927
-0.004986891
-0.0116812
0.0006695624
-0.01226163
0.0006459064
-0.01100082
-0.003799277
-0.007897855
-0.009827603
-0.01416228
0.0007392781
0.005051775
-0.0235649
0.005477303
-0.02197337
0.01059353
-0.02286773
0.01475169
-0.01768983
0.0176516
-0.01251245
0.0186918
-0.004769963
0.01826333
0.002430921
0.01651442
0.008411005
0.01393613
0.01181012
0.01121128
0.01360052
0.007821921
0.01680063
0.003587036
0.01860667
0.0009246193
0.01322818
0.0008741799
0.002607313
0.00315821
-0.008037088
0.006336303
-0.01264369
0.008211913
-0.008860245
0.007090288
0.003430065
0.003017383
0.01636074
-0.0006546669
0.01944813
-0.004510507
0.01926475
-0.0111306
0.01043452
-0.02128089
0.007570003
-0.02935375
0.01072651
-0.03438599
0.01135369
-0.03634309
0.003290325
-0.03802384
-0.007722767
-0.03885794
-0.02272772
-0.03931533
-0.02478198
-0.04183742
-0.001136305
-0.04888172
0.04405901
-0.05388083
0.06979805
-0.05516413
0.05670017
-0.05577602
0.02349073
-0.05894045
0.01110582
-0.06143851
0.01054352
-0.06239768
0.01235629
-0.06228188
0.01304007
-0.06198142
0.0108775
-0.06216702
0.007713485
-0.06249439
0.004745872
-0.06269541
0.00271041
-0.06302796
0.001778035
-0.06284835
0.0001983749
-0.06282503
3.676645e-05
-0.06232905
-0.002126164
-0.06172504
-0.00256844
-0.06112965
-0.002862477
-0.06016933
-0.003823531
-0.05944705
-0.003541079
-0.05837421
-0.004688211
-0.05730338
-0.005007865
-0.05595453
-0.006016463
-0.05451898
-0.006367904
-0.05315119
-0.006363621
-0.05158497
-0.007239183
-0.04985756
-0.007636297
-0.04820751
-0.0075693
-0.04636537
-0.008550734
-0.04442785
-0.008912893
-0.0423644
-0.009317107
-0.04027268
-0.009440388
-0.03830464
-0.00946477
-0.03589378
-0.01063174
-0.03373757
-0.0101492
-0.03125897
-0.01103021
-0.02888886
-0.01110504
-0.02644524
-0.01124111
-0.02391075
-0.01140835
-0.02140314
-0.01174184
-0.01881587
-0.01185481
-0.01618659
-0.0120268
-0.01362961
-0.01206435
-0.01085918
-0.01240253
-0.008380183
-0.01180977
-0.005570429
-0.01271606
-0.002808545
-0.01242299
-0.0001021668
-0.01199823
0.002575088
-0.01182224
0.005490435
-0.01324577
0.008219367
-0.01296925
0.01087698
-0.01265581
0.01358387
-0.01246783
0.01628555
-0.01227986
0.01894843
-0.0122321
0.02150005
-0.01184447
0.02425669
-0.01227689