/*--------------------------------*- C++ -*----------------------------------*\
| =========                 |                                                 |
| \\      /  F ield         | OpenFOAM: The Open Source CFD Toolbox           |
|  \\    /   O peration     | Version:  2406                                  |
|   \\  /    A nd           | Website:  www.openfoam.com                      |
|    \\/     M anipulation  |                                                 |
\*---------------------------------------------------------------------------*/
FoamFile
{
    version     2.0;
    format      ascii;
    arch        "LSB;label=32;scalar=64";
    class       volScalarField;
    location    "4";
    object      p;
}
// * * * * * * * * * * * * * * * * * * * * * * * * * * * * * * * * * * * * * //

dimensions      [0 2 -2 0 0 0 0];

internalField   nonuniform List<scalar> 
15536
(
-72.25977
-68.45373
-63.80645
-58.49824
-52.54186
-46.51888
-40.69113
-35.04918
-29.95189
-25.60015
-21.48867
-18.39007
-15.40072
-12.347
-9.150191
-5.925358
-2.688225
0.2450343
1.864884
5.227281
6.05595
5.903587
6.266961
3.945423
-2.587661
-13.25576
-32.45184
-60.78804
-94.0002
-73.12075
-10.83582
3.437973
-13.21971
-27.74231
-46.57428
-79.2265
-107.8048
-96.37597
-69.31771
-67.63133
-72.5309
-77.98338
-82.75865
-85.57928
-87.03315
-87.21981
-86.38946
-84.50783
-82.05697
-79.19637
-75.62236
-71.43467
-66.61356
-61.3943
-55.73184
-49.69697
-43.60687
-37.39383
-30.83672
-24.10927
-17.48394
-10.9797
-4.501129
1.896349
8.08225
14.13638
19.89999
25.35127
30.38611
35.00045
39.15553
42.85073
46.05311
48.69071
50.71715
52.23269
53.10805
53.39232
53.12445
52.36692
50.86366
48.70033
45.9511
42.61806
38.72451
34.2888
29.3797
23.90777
18.04141
11.82179
5.095024
-1.941818
-9.226957
-16.95396
-24.83123
-32.64775
-40.64144
-48.79431
-56.90745
-65.0733
-73.12279
-80.86202
-88.24778
-95.37626
-102.3791
-108.9274
-115.001
-120.5524
-125.6023
-130.2266
-134.1225
-137.2057
-139.5369
-141.0918
-141.7385
-141.1538
-139.0564
-135.103
-129.5263
-125.1172
-120.9654
-122.9698
-157.4942
-171.2675
-136.5028
-97.05118
-76.9927
-63.81399
-41.40423
-24.46025
-86.50483
-143.2921
-135.8218
-110.3456
-82.42744
-61.32061
-45.32427
-31.73332
-21.51746
-19.89782
-21.04099
-21.87007
-25.92158
-33.81794
-44.98672
-56.60086
-59.33469
-52.52841
-55.13874
-64.00558
-68.2585
-69.6713
-72.16028
-74.59139
-75.99657
-76.07791
-74.8303
-71.89449
-68.11672
-63.49665
-58.2197
-52.2932
-46.30058
-40.49928
-34.84754
-29.73023
-25.37696
-21.29852
-18.22907
-15.281
-12.26691
-9.107097
-5.915444
-2.698969
0.2345616
1.865943
5.236249
6.075989
5.93803
6.29925
3.925459
-2.630607
-13.25961
-32.38765
-60.69511
-94.17538
-73.24413
-11.01204
3.388299
-13.36175
-27.86378
-46.6004
-79.27609
-107.7418
-96.19704
-69.2201
-67.52962
-72.2686
-77.41007
-81.89597
-84.46329
-85.79534
-85.93386
-85.08363
-83.19364
-80.74391
-77.9037
-74.35736
-70.20574
-65.42417
-60.25163
-54.64357
-48.66567
-42.63355
-36.48341
-29.99465
-23.33223
-16.77263
-10.33501
-3.920595
2.413667
8.537252
14.52892
20.23204
25.62796
30.61212
35.17897
39.29181
42.94998
46.12019
48.73304
50.73892
52.24005
53.10749
53.3891
53.12231
52.36887
50.87613
48.73211
46.00812
42.70584
38.84886
34.45586
29.59425
24.17557
18.3695
12.20989
5.548724
-1.41467
-8.629229
-16.28767
-24.08472
-31.8226
-39.73951
-47.81169
-55.8447
-63.93169
-71.90409
-79.56677
-86.87994
-93.94462
-100.8889
-107.3783
-113.4012
-118.9054
-123.916
-128.5115
-132.3832
-135.4562
-137.7969
-139.3757
-140.0693
-139.5699
-137.6619
-134.0667
-128.8752
-124.8525
-120.8502
-122.8346
-157.339
-171.2023
-136.5673
-97.0631
-77.04944
-63.93294
-41.58114
-24.25207
-86.67823
-143.6772
-135.5999
-110.0301
-82.23063
-61.23176
-45.33956
-31.80063
-21.53532
-19.84182
-20.96618
-21.79936
-25.86531
-33.77817
-44.98099
-56.63338
-59.36405
-52.50072
-55.16295
-64.03276
-68.26544
-69.6577
-72.02602
-74.34838
-75.67206
-75.69513
-74.44029
-71.69834
-67.87844
-63.21658
-57.90441
-51.95197
-45.94298
-40.15538
-34.55892
-29.49537
-25.23906
-21.17019
-18.13026
-15.20787
-12.21981
-9.088246
-5.928874
-2.731953
0.2064959
1.86282
5.213114
6.065588
5.950676
6.3018
3.844969
-2.732501
-13.29016
-32.38287
-60.83998
-95.20418
-74.67496
-11.71274
3.583058
-13.32457
-27.90404
-46.68662
-79.50389
-108.277
-96.43828
-69.57615
-67.42589
-71.9452
-76.79972
-81.04671
-83.57207
-84.98483
-85.15372
-84.34075
-82.47134
-80.03444
-77.21993
-73.68438
-69.55484
-64.79406
-59.6517
-54.07897
-48.11503
-42.10899
-35.99819
-29.53414
-22.90051
-16.37157
-9.971493
-3.593405
2.71327
8.798636
14.76276
20.43339
25.79952
30.75533
35.29558
39.38204
43.01648
46.16523
48.76256
50.75082
52.24098
53.10168
53.38051
53.11528
52.36617
50.88118
48.7526
46.04631
42.76475
38.93217
34.56565
29.73435
24.34196
18.56963
12.44526
5.814311
-1.111062
-8.285663
-15.9101
-23.66849
-31.3611
-39.24266
-47.28025
-55.26707
-63.32992
-71.26604
-78.89804
-86.18215
-93.20197
-100.1137
-106.5667
-112.5651
-118.043
-123.029
-127.608
-131.4536
-134.4986
-136.8074
-138.3579
-139.0197
-138.4705
-136.4735
-132.972
-128.1218
-124.3064
-120.4925
-123.1979
-157.5882
-171.8254
-136.8465
-97.19111
-77.04882
-63.8813
-41.51418
-23.92551
-88.20774
-145.5114
-135.843
-109.9387
-82.08761
-61.16012
-45.42422
-31.99487
-21.65565
-19.83144
-20.88707
-21.72107
-25.81917
-33.74301
-45.02234
-56.78056
-59.51561
-52.48527
-55.09618
-63.87657
-68.0895
-69.61069
-71.92219
-74.14278
-75.43746
-75.50368
-74.25476
-71.11028
-67.32607
-62.68318
-57.43901
-51.54526
-45.56843
-39.81246
-34.23769
-29.18034
-25.00089
-20.94186
-17.96449
-15.104
-12.16962
-9.086915
-5.974548
-2.804242
0.1434399
1.8571
5.128007
6.003191
5.972065
6.331834
3.740046
-2.876481
-13.32166
-32.45239
-61.27035
-97.07513
-77.5464
-13.15272
4.188056
-12.9126
-27.77417
-46.66678
-79.27924
-107.6384
-96.48619
-70.5684
-67.61886
-71.51307
-75.92554
-79.82845
-82.12587
-83.36304
-83.44832
-82.63838
-80.78165
-78.36667
-75.59499
-72.12228
-68.06395
-63.37244
-58.29986
-52.80628
-46.92391
-40.99273
-34.96648
-28.59849
-22.03998
-15.58717
-9.269451
-2.972947
3.262559
9.269575
15.16703
20.77101
26.08063
30.98026
35.46855
39.50973
43.10589
46.22099
48.79554
50.75869
52.23515
53.08793
53.36379
53.10096
52.35634
50.87864
48.77197
46.09087
42.83982
39.04555
34.72428
29.94721
24.60529
18.90158
12.84471
6.27954
-0.5584689
-7.65236
-15.20589
-22.86237
-30.45947
-38.25601
-46.19192
-54.07878
-62.0463
-69.88457
-77.4093
-84.5874
-91.52674
-98.35713
-104.7139
-110.6334
-116.0255
-120.9465
-125.4763
-129.2732
-132.273
-134.5566
-136.1164
-136.8176
-136.379
-134.642
-131.4202
-127.0413
-123.5528
-120.3656
-124.297
-157.5854
-171.22
-136.6297
-97.23741
-76.91408
-63.44847
-41.00757
-24.04726
-91.2149
-148.6094
-136.397
-110.0071
-81.97366
-61.08897
-45.56388
-32.3203
-21.89295
-19.79753
-20.79037
-21.66118
-25.78411
-33.71672
-45.11477
-57.00669
-59.77075
-52.65618
-55.11805
-63.54429
-67.7175
-69.48883
-71.7493
-73.81836
-75.01333
-74.9805
-73.67004
-70.7153
-66.83775
-62.15621
-56.94978
-51.0765
-45.11599
-39.4001
-33.87715
-28.82541
-24.77923
-20.6983
-17.7972
-15.00728
-12.13903
-9.118559
-6.067881
-2.937127
0.03578853
1.815538
4.970309
5.917212
6.069148
6.450362
3.644264
-3.024198
-13.33171
-32.58516
-62.0617
-99.98676
-81.62763
-15.36883
4.615726
-12.28194
-27.51165
-46.31021
-77.47624
-103.4115
-94.05819
-71.38335
-68.00724
-71.02875
-75.02935
-78.67814
-80.84619
-82.14698
-82.27786
-81.48884
-79.64323
-77.17313
-74.44477
-70.9556
-66.92259
-62.23613
-57.20342
-51.7676
-45.90506
-40.01812
-34.0694
-27.76054
-21.2466
-14.85279
-8.612578
-2.384781
3.799836
9.730475
15.57432
21.11582
26.36874
31.20821
35.64817
39.64308
43.1984
46.27207
48.82099
50.75608
52.21635
53.06103
53.334
53.07451
52.33239
50.85894
48.78342
46.13579
42.91921
39.16573
34.88941
30.16823
24.87415
19.24517
13.2499
6.734097
-0.01053884
-7.025002
-14.53917
-22.1071
-29.61099
-37.34783
-45.21463
-53.00668
-60.92436
-68.70126
-76.16057
-83.28039
-90.15695
-96.95595
-103.2522
-109.1492
-114.5051
-119.3981
-123.9517
-127.6984
-130.7063
-133.0082
-134.5772
-135.2769
-134.7587
-132.9781
-129.8951
-125.8865
-122.7394
-120.5492
-125.2012
-154.6182
-166.3983
-134.4344
-96.83756
-76.62914
-62.64884
-40.11047
-25.36017
-95.26526
-152.843
-137.4292
-110.32
-81.90683
-60.98678
-45.69103
-32.7401
-22.18638
-19.63061
-20.62131
-21.6295
-25.78119
-33.71396
-45.26352
-57.30515
-60.0941
-53.17293
-55.4173
-63.29699
-67.33109
-69.3317
-71.55283
-73.49893
-74.62967
-74.57471
-73.28416
-70.08137
-66.23171
-61.55415
-56.42212
-50.56012
-44.598
-38.90731
-33.44562
-28.36616
-24.52937
-20.41135
-17.62289
-14.926
-12.15119
-9.202812
-6.237751
-3.164314
-0.1393419
1.694997
4.73876
5.85888
6.321492
6.720475
3.573938
-3.127814
-13.2925
-32.78631
-63.65064
-104.1135
-86.92665
-18.74405
4.14093
-12.13972
-27.44834
-45.74344
-74.10051
-95.57345
-88.80301
-71.23841
-68.11138
-70.28084
-73.78668
-77.06822
-78.92144
-80.08122
-80.01967
-79.28203
-77.48234
-75.06114
-72.46417
-69.06144
-65.14229
-60.53783
-55.58696
-50.25093
-44.46232
-38.67831
-32.8509
-26.62999
-20.19673
-13.90863
-7.767526
-1.635568
4.47634
10.29791
16.07307
21.52666
26.69299
31.4661
35.85722
39.79403
43.29752
46.31448
48.84087
50.7399
52.17587
53.01356
53.283
53.02716
52.28643
50.81891
48.77845
46.17683
43.0053
39.30153
35.0803
30.42037
25.17555
19.65583
13.74768
7.272229
0.6403268
-6.23039
-13.68547
-21.14818
-28.50817
-36.13586
-43.90867
-51.57281
-59.38041
-67.0436
-74.38481
-81.36962
-88.13559
-94.85744
-101.0124
-106.8206
-112.0536
-116.8493
-121.3147
-124.9724
-127.8729
-130.0142
-131.6011
-132.3657
-132.0583
-130.5387
-127.7596
-124.2878
-121.5985
-120.3894
-124.8186
-147.7869
-156.2983
-130.0977
-96.00683
-76.39831
-62.30896
-40.20176
-29.01083
-100.0714
-158.1383
-139.167
-110.8802
-81.88267
-60.81138
-45.7206
-33.18926
-22.44409
-19.12577
-20.22664
-21.59835
-25.8421
-33.75326
-45.44842
-57.69105
-60.4914
-54.05364
-56.18466
-63.23215
-66.98685
-69.13566
-71.28167
-73.06772
-74.09538
-73.98313
-72.64168
-69.44834
-65.63105
-60.91582
-55.82472
-49.98079
-44.02471
-38.36572
-33.04316
-27.86046
-24.28176
-20.09265
-17.40349
-14.87158
-12.236
-9.371662
-6.533061
-3.538087
-0.4711754
1.463964
4.441811
5.863961
6.820152
7.193707
3.609109
-2.988108
-13.21271
-33.27806
-66.69057
-109.349
-93.14368
-23.80875
1.848031
-12.93962
-27.80112
-45.18232
-70.24601
-88.00533
-83.20422
-70.40989
-67.8706
-69.46349
-72.51413
-75.54392
-77.11928
-78.3157
-78.34129
-77.57005
-75.69004
-73.14625
-70.63577
-67.19974
-63.37606
-58.78602
-53.85035
-48.63539
-42.95973
-37.23697
-31.46994
-25.38207
-19.0761
-12.86653
-6.771774
-0.811257
5.232754
10.92166
16.62985
21.96186
27.04125
31.80561
36.09318
39.94165
43.37394
46.33514
48.88323
50.70559
52.11192
52.93947
53.20065
52.94951
52.23015
50.78223
48.73095
46.16327
43.05246
39.41687
35.29117
30.71332
25.49309
20.09081
14.32542
7.937761
1.35083
-5.406381
-12.68709
-20.05998
-27.31785
-34.81057
-42.39786
-50.01865
-57.74151
-65.22276
-72.49098
-79.32364
-85.98874
-92.6791
-98.69648
-104.4807
-109.5988
-114.3777
-118.905
-122.4798
-125.4179
-127.7919
-129.3809
-130.1184
-129.6804
-128.2294
-125.6415
-122.6432
-120.3402
-119.7213
-123.4158
-140.2276
-146.3295
-125.15
-95.14562
-76.3589
-62.61055
-41.99246
-35.28829
-106.1387
-163.8146
-142.1802
-111.6134
-81.85924
-60.59401
-45.59793
-33.54726
-22.52849
-18.10722
-19.46949
-21.51409
-25.9656
-33.82457
-45.64386
-58.02839
-60.89647
-55.24605
-57.34787
-63.29909
-66.70693
-68.95488
-71.02938
-72.66358
-73.59721
-73.4228
-72.01579
-68.899
-65.163
-60.16453
-55.11889
-49.45412
-43.49225
-37.84669
-32.798
-27.27126
-24.0668
-19.7526
-17.12908
-14.90031
-12.37071
-9.684438
-7.011313
-4.069336
-1.046233
0.9930889
4.053786
5.961062
7.67035
8.049955
4.069208
-2.614855
-12.7106
-34.46075
-69.13591
-114.6375
-99.54711
-30.95393
-2.829531
-14.85961
-28.53411
-44.39433
-66.01415
-81.01626
-78.34548
-69.1654
-67.11283
-68.26171
-70.71666
-73.52919
-74.51124
-75.62327
-75.41313
-74.79979
-73.16771
-70.45287
-68.12379
-64.81478
-61.16071
-56.54084
-51.67909
-46.80793
-41.28896
-35.3372
-29.74339
-24.03624
-17.88922
-11.51566
-5.543761
0.02744929
6.098846
11.5766
17.25997
22.35962
27.51718
32.28044
36.32075
40.05532
43.39104
46.33082
48.91533
50.60828
52.03202
52.83324
53.08179
52.84626
52.17432
50.71317
48.6428
46.06055
43.02504
39.47101
35.46506
31.08862
25.8527
20.53353
14.94033
8.893971
2.363397
-4.662983
-11.61864
-18.60815
-26.01831
-33.43177
-40.53053
-47.98651
-56.02803
-63.00662
-70.2824
-76.92128
-83.38595
-90.07199
-95.80255
-101.6299
-106.4578
-111.0772
-115.6545
-119.0416
-121.8564
-123.854
-125.4727
-126.3958
-126.1322
-124.9398
-122.6485
-120.3406
-118.557
-118.3901
-121.5202
-133.5811
-136.8744
-119.3925
-94.27888
-76.72314
-63.22079
-45.58258
-43.73296
-113.3787
-167.9213
-145.9672
-112.7171
-81.51988
-60.39576
-45.19408
-33.41141
-22.05557
-16.51419
-18.26405
-21.37524
-26.24009
-33.57309
-45.66702
-57.70267
-60.89551
-56.64727
-58.76624
-63.46084
-66.51491
-68.79567
-70.76446
-72.21111
-73.03636
-72.81742
-71.3755
1.83366
1.229544
-25.64537
-23.95642
13.7015
-20.39502
1.328194
1.562987
13.8522
-2.159821
-1.579298
2.751599
-0.8612204
0.5036771
0.6534076
4.349043
-0.7386155
-3.964461
1.175864
1.415654
-58.25977
1.818565
3.542924
-2.367061
1.525624
2.18538
3.676268
-1.676674
-8.656306
0.6974254
1.88808
-10.47127
0.7992603
1.03013
1.041596
-6.016935
-3.750764
0.1391897
-2.081458
-7.341097
-25.29657
2.665049
1.009885
3.396569
36.2684
1.387022
-13.05086
2.226518
-13.09394
-1.743447
2.821154
-9.584172
-10.29565
0.9221984
0.2934133
25.87853
-7.085711
1.853309
-15.73935
-26.89661
-1.599309
0.03441925
-9.21803
2.015147
-2.917424
2.400133
-21.28471
0.4309127
0.01171833
1.282897
-0.5063
-17.77245
-7.451086
-70.78316
23.11813
0.4655251
4.892716
-3.397328
-0.8238542
1.188572
-27.54139
0.324047
4.398561
0.7645596
-13.37405
1.226835
1.454274
1.709413
-28.98003
-2.071457
-20.05421
22.45345
-4.209205
0.8836736
1.620926
3.134135
-4.120244
6.318752
-31.43068
1.804271
1.408745
1.590721
1.079854
-98.51823
0.1611806
-10.22195
-8.21256
1.209681
-0.4247082
-5.818553
2.333707
0.4860969
0.5015369
8.165734
-13.77898
-0.02158053
0.4500612
0.8665038
20.25729
0.9330758
2.387151
0.7244171
-0.5381195
2.157168
1.979588
-1.475244
-0.1049129
-16.09502
2.242158
1.990327
0.4449596
-1.741106
1.160758
0.4788397
1.831361
-39.6772
0.2974579
9.872625
1.614937
0.5059547
-20.58276
0.6146992
-73.96307
1.381433
1.937312
-11.62156
0.8851665
-48.40333
0.502477
-0.3801814
0.3868863
-11.44268
-70.478
0.7960192
-26.5849
-49.41975
0.7128818
0.8704721
1.099685
-40.59044
1.658959
-39.24126
-10.48234
1.430351
2.735759
-18.50996
-26.34914
2.464157
-22.14046
1.258079
1.607276
-4.099951
2.136417
-23.02046
-8.542219
-2.979494
3.776114
1.545694
-24.72204
-2.711077
17.65876
2.887957
0.9325882
0.8505441
3.494077
-53.10938
1.954867
0.4035155
-12.38237
1.888105
0.160144
1.682799
-11.48291
-2.87319
-0.3418897
1.134333
1.463696
0.3681739
-6.813041
-39.38764
1.414915
-15.03625
1.618387
-33.7246
0.4589456
-3.769635
-9.224029
-0.8582177
-11.28207
2.460726
1.997529
1.675075
-19.54214
-2.557198
0.9349965
-0.998729
-14.34436
1.592934
3.174207
1.18742
2.463179
-16.04736
4.122914
-0.2076853
-4.125073
-1.225577
1.154408
8.78507
-0.3236107
21.47232
-3.743508
-11.75483
5.867015
0.6664136
-87.33181
0.565971
29.63646
-12.3884
3.023979
0.1302595
0.3604578
1.888043
0.8373124
-6.076691
1.753227
-20.77983
1.06273
-31.44751
0.652378
0.5033061
-39.83801
1.301358
2.104556
1.524921
4.011078
-33.59205
1.405909
0.6267588
-26.92756
-5.933376
1.068241
0.2796216
-14.18675
-4.638237
-0.2497971
3.595782
1.083782
0.4819521
-6.119192
-31.08014
0.7641699
1.160385
13.97285
-1.12753
2.130405
4.543451
2.832702
-15.28954
-52.92507
0.557755
1.042163
1.208757
-6.594919
2.093924
2.444579
1.696585
36.18245
0.01806533
3.154136
1.706571
3.510225
0.6222496
1.372797
1.381753
-28.23067
0.646929
-18.0043
0.891854
1.439016
0.008664135
-49.76469
1.066925
-3.211335
-1.500075
-0.3253187
0.3102525
1.564246
1.025729
0.1739626
1.193785
-6.640989
2.740025
1.01918
1.538713
-0.2256847
-15.25922
36.11033
-69.79735
-24.79032
-53.34176
-0.779754
3.133811
2.308441
3.051621
0.1934828
-4.186869
0.7560741
-2.884472
1.102363
-2.461158
18.93645
-13.55006
-9.700827
-70.57084
0.5298007
3.228422
0.61545
2.834486
-5.61334
0.277397
-34.42832
-1.587937
0.9110689
0.5781006
-16.32356
4.733779
-8.100028
-0.02890745
-13.65723
0.303658
-0.09737715
1.180104
15.2841
0.9847333
-1.024793
-41.61262
-59.78592
2.874731
1.757067
2.623396
2.208175
-6.796921
-2.769918
3.220632
1.516484
3.285981
3.081847
1.917023
1.82198
2.575773
-4.062076
14.63375
-44.51159
0.9408061
3.203668
1.497927
1.784228
2.396498
0.9916605
2.500161
2.387526
2.805265
0.2674327
-5.945019
0.204883
1.711995
2.225669
38.16935
3.021351
2.090507
0.9929216
0.785771
2.669075
-48.85941
0.3510005
-1.141051
1.135173
-7.884427
2.261707
0.9977392
3.095756
1.329619
-34.89186
-9.945453
2.252251
1.095094
-26.50469
-57.02162
3.486344
1.661389
1.335081
0.8044023
1.743107
1.839684
3.069681
-0.8128117
2.130208
-28.09786
0.8995158
-11.82213
0.3859323
0.4933078
5.770244
0.9537515
-0.07511579
-32.0344
0.8781918
2.627037
-62.69147
-14.50379
-16.25113
2.099484
1.379257
1.537022
2.187955
2.737287
0.8661048
-7.364632
0.4413291
1.526057
1.757507
1.279857
2.087533
0.7794941
-5.859937
2.016474
-5.237738
-1.009858
-2.895094
-0.168171
1.355448
-46.44383
0.7565731
-2.914272
0.8528972
2.508567
-6.28099
6.029398
1.847368
-23.60132
0.9412275
-27.94488
1.694833
0.8660092
2.896178
1.075452
26.66176
0.7292942
5.387196
-2.120537
-13.27125
-1.622115
1.866594
9.140602
-6.866565
-1.692701
-12.83897
-23.98941
2.16669
0.7694226
-17.27174
0.3569115
2.244564
0.9752415
1.347727
0.8336413
-2.527291
18.13275
0.4629186
3.135115
0.8860309
-28.76221
0.3592433
1.529843
-23.7518
1.820497
1.657012
4.735558
0.6345475
4.742081
1.633715
1.099402
1.227051
-6.29883
2.853622
1.878719
1.602233
-3.076265
-18.16683
-14.93636
-31.13681
6.894089
19.02015
-2.650439
2.614284
2.233809
2.897701
1.169808
1.660025
1.360477
1.871812
0.6168645
-8.573623
2.374517
1.745781
-0.7691999
0.3144862
4.434157
0.7886002
0.8409963
-30.94195
2.428627
-33.13312
0.4547569
5.193763
5.232598
4.20604
0.7584584
2.232315
0.8420634
5.149481
2.101657
0.4759843
1.120966
-31.22614
3.775226
4.487073
2.263155
-4.101208
8.445904
2.222298
5.187242
2.387034
-4.665287
1.033829
1.556003
2.407075
-22.67943
17.45277
0.8256127
0.9952522
-0.002347141
1.829508
1.713671
0.5224438
1.792886
2.193466
11.8011
34.28998
-10.96868
1.946466
8.196861
0.2776214
-69.16579
1.089377
3.938641
1.601023
4.247729
0.8193337
0.5596985
0.05865856
1.076001
7.153893
0.1676595
-4.118584
-26.53922
1.388246
1.025228
-90.53035
-5.163212
-1.368338
-4.404925
2.422211
-0.8297352
1.822313
0.7454416
1.832641
-37.86948
1.815052
2.037346
1.953045
-1.914747
-3.082569
0.4954693
1.030918
-8.702931
-3.961872
1.121817
-12.62064
1.331581
5.344882
1.037466
-12.01049
1.781363
10.2674
-14.52828
-0.407964
3.37755
4.636149
5.574167
0.9632282
-0.4803859
1.770427
-1.154064
1.694696
19.41582
3.346602
0.3773172
0.9842145
-3.237939
-3.825986
-0.1168231
-17.57722
-33.11857
-51.58912
-10.54599
-15.83026
1.532283
-0.7407888
1.960028
1.896696
1.424274
1.556903
-12.35866
1.301
0.9178482
1.565411
-42.43238
0.5707111
27.23209
5.602873
-22.18613
-3.09152
-13.1404
8.035226
-3.737272
-8.351287
1.25797
2.801465
2.002392
1.657078
2.675857
0.6059716
2.237004
0.66646
0.2088316
-27.35076
4.178564
1.174768
-0.5054787
1.675831
1.405949
-98.00439
-3.940726
1.392959
8.163278
-30.1901
-1.630787
0.1302777
5.488905
14.8594
9.073766
2.926003
-8.341548
1.875469
-2.417639
0.8309394
-3.620563
3.788357
2.293208
-13.21598
-17.14162
-71.43765
1.378012
0.333158
2.036488
-47.1629
2.346206
1.804772
1.811814
0.8924967
-13.12666
5.381018
-1.315915
4.70465
-3.625285
3.311221
1.856069
-12.65651
-12.32994
1.23383
0.7275573
2.581414
0.8627104
1.155427
0.1551534
2.697056
-58.11184
0.9497334
-1.355265
1.714469
0.7022122
0.1809436
1.801615
1.234035
1.121901
1.102824
-30.63407
1.865199
1.736372
2.292917
1.919919
1.969645
1.08169
0.9734802
1.363176
2.296047
5.699047
-13.57551
2.294672
0.3027381
0.07241492
1.606327
0.6089932
2.387478
1.120635
-58.46021
3.878349
4.550489
11.6855
-2.800622
-4.419232
-10.89453
-13.63503
0.3510581
-0.9439074
-0.4339209
-4.520189
-9.182151
-7.296222
-5.611484
0.5979539
3.343645
13.38482
1.676453
1.494868
-41.56646
1.294412
1.764352
1.803384
-12.46003
24.94101
-5.573084
1.887435
3.628595
2.412349
0.7842449
0.8939489
-4.079253
2.18423
3.283911
-1.782142
1.784448
3.888718
4.276124
2.275487
1.867466
1.570796
2.569478
0.1566933
-0.9723199
-10.89399
32.55254
1.862917
0.8175507
0.8237903
1.114978
0.9945724
0.646663
-72.61482
0.7017391
-69.08154
-4.23963
-0.654258
-3.22359
0.9538303
1.137735
0.8340375
1.888564
1.4719
1.798318
-0.08556112
-38.42465
2.048679
-1.455137
2.120366
0.6629809
-1.200494
3.718442
-11.77246
-4.573211
18.21914
1.377365
0.9905403
-0.1719164
-0.2068796
2.470549
1.346053
1.142819
1.436681
-43.92653
1.349647
9.342947
-40.34878
-0.1687569
-7.637414
-5.294785
-0.03589037
0.900617
2.249556
-0.5788175
1.743952
-3.132683
4.778184
3.228344
4.273838
4.830924
-0.7718891
-17.12494
30.73092
0.808878
-3.26644
-3.720416
-44.66479
3.340299
1.788977
1.148054
1.555165
33.27185
-0.4711477
1.036573
0.3407155
1.248936
-7.175364
1.683264
1.510181
1.609899
-10.47814
-18.89161
1.394748
0.4393599
-8.23205
0.8458527
-6.416802
1.65008
-15.70305
6.472251
29.70364
0.2883098
1.739044
-0.7498278
3.015359
2.971952
13.969
-2.071732
1.782167
-0.101781
-0.5973112
1.845464
0.951432
-1.151691
-2.221581
-18.68773
-16.15849
4.396715
-13.35774
0.6628759
2.912313
1.633285
9.527621
-1.506809
2.473165
-9.15862
8.685367
-30.15307
8.080791
1.670396
1.11619
-5.618
31.35551
-6.972179
0.4818648
-2.134442
-41.40709
0.6317183
0.7325881
5.954407
0.9062241
0.2351412
-11.08813
0.06745345
2.579844
-11.49446
-22.52887
0.3280998
-5.240914
-10.21469
-35.50828
4.285637
-50.83426
0.8945424
-0.7713586
-9.318114
1.081438
-1.900049
-39.98246
0.03447597
1.088283
-0.5952419
2.606232
0.6621548
3.948992
-70.14764
2.227656
20.02675
0.7324662
-5.374809
0.6080624
15.70401
-13.17546
0.3277594
0.5123622
1.634354
-4.014804
-1.244297
-9.647341
0.7737974
1.249129
1.501329
-72.48789
-85.13317
1.590648
1.882738
3.861036
0.9921153
1.715751
3.884776
1.514559
0.8381888
1.758443
1.806162
0.6668321
9.448309
1.666199
-21.99819
0.8767814
0.6879574
-73.08373
1.84466
0.8223492
0.7716192
-36.66275
-8.288016
-3.667624
1.903039
-4.552352
-21.70595
37.62888
49.8956
1.856366
-0.237755
-0.3446639
7.968823
1.845398
0.589142
11.12506
-40.88783
1.933188
1.006917
-1.047369
3.19918
1.181649
-3.458059
-2.766116
-12.93459
-65.55774
1.562387
3.023242
1.674618
2.552304
3.286364
-35.45079
1.461353
1.768692
0.9591965
2.282159
-11.09382
1.344169
-18.85916
-9.930386
1.897522
2.542894
1.629826
1.948897
-8.660516
2.066201
0.4986922
-36.09607
0.5878867
-21.68909
-59.73695
-0.3002044
-0.8709911
-70.87732
-74.83569
2.778027
3.373133
2.657882
1.374095
2.655006
-4.441432
0.8597526
1.129959
0.8493803
-0.01002391
1.678449
-2.261858
0.2503748
1.299171
1.825797
0.8198066
0.6967683
2.248303
1.368436
1.017593
1.709912
-3.216657
1.209873
0.8943395
5.17118
0.08570452
3.206778
-4.750641
0.2410258
-7.405743
-9.173418
-11.29323
1.09025
1.03473
0.5537598
0.9037564
-35.92297
-14.93121
-16.63864
-38.20705
24.46286
0.8708886
3.37031
-20.06032
-27.44623
0.4299853
4.413639
-73.36722
2.473491
0.5556392
-25.55353
0.7310817
8.786942
1.935482
2.059852
-3.344156
0.0528442
-27.39417
2.841912
-0.3549777
35.35093
-15.71389
-9.320574
1.808904
3.525363
2.477246
9.248811
2.620014
8.157191
1.250284
-12.53826
-1.481417
-21.68584
-3.593698
1.685928
-9.945637
1.737358
-73.99506
9.746456
2.01543
21.52317
0.8919883
29.73523
-13.5163
1.24888
1.138893
-0.1893412
14.65732
-21.45836
10.78132
0.9136066
1.247161
0.6881134
0.8805651
5.423288
-3.686555
-7.541515
0.7780168
-17.59496
1.018342
15.87683
-7.892966
2.279267
-35.02079
-7.599346
0.9071956
-40.41314
38.54617
-0.9236281
0.9836482
-46.08923
-1.069986
0.5125802
0.5850334
-0.9998487
-9.650799
-94.19927
-14.91208
0.7872564
2.453902
1.421666
1.432802
1.371068
3.440264
12.51636
5.179518
0.5517538
1.33549
1.519375
-4.86942
-18.21621
1.320106
1.237008
1.670081
-31.32856
0.1489513
1.142942
0.9564791
-2.091952
-12.2748
2.318246
0.2152065
3.006072
1.184772
1.31209
-15.46329
1.400965
2.334236
-73.28625
23.32232
-3.295226
1.676902
4.965679
-2.152627
0.8672089
0.4395231
0.6628801
-0.1276214
1.540854
-7.232692
1.547898
-20.60721
2.086422
-3.92022
0.1100552
1.198466
-1.379329
-0.02812399
-15.92026
-8.006185
-1.189162
-9.007198
0.8702753
1.033028
-1.306574
-4.470004
0.3337132
7.268455
3.0609
0.7633733
0.548388
-1.461596
1.032299
-8.939701
3.119067
-36.05905
0.7182928
-1.352797
0.9088205
-47.64252
0.4765683
-41.09766
0.8576918
0.9438148
0.03813801
-0.04727103
4.275098
-38.2181
-83.80034
0.8280743
1.166596
-4.476213
1.70465
4.439003
3.593151
1.906355
2.387433
0.7871024
1.725596
-46.65333
-0.05620316
-2.661069
0.2022046
1.011379
-1.620208
0.4978459
0.7288704
0.8947335
-4.460807
-0.3524119
-6.237913
7.760939
1.406149
-16.50707
0.9702763
-0.6204615
-2.131686
-13.84237
1.42896
1.386258
0.1966894
-23.797
-50.99816
-48.43247
0.8957529
-30.87513
2.766352
-11.68395
-4.320379
2.049172
17.69317
1.052225
-70.118
-83.62526
0.9220368
1.646447
-2.758815
1.555469
1.453474
0.9390058
-1.282236
-2.040329
1.165924
-21.20618
-0.9172388
0.749673
-1.805484
2.697139
-1.616672
0.7806138
-3.580966
0.9823649
0.3725353
-28.26195
1.681234
4.136653
2.630031
1.37832
-45.46601
-3.393149
-1.654334
-4.665135
-2.697422
-0.8452306
-35.33074
1.530402
-2.250552
-7.392431
0.4844687
14.47652
-65.6891
-8.414704
-0.7998882
-0.5100278
23.15494
-3.84891
1.639802
2.047821
1.021874
2.068545
-27.71827
-37.31655
-24.13683
9.766248
7.437887
1.152833
-64.98957
-54.66205
-82.11001
3.268603
-2.102985
0.9029551
-2.197707
0.7948209
0.751448
1.249986
1.731723
2.046426
2.444856
2.075919
1.199758
-32.52832
1.520832
2.854336
-0.657464
-17.56332
21.11831
0.4682623
-14.01378
-42.12435
-5.588743
4.548453
-7.610143
-2.024194
-16.7633
-75.95197
0.3215643
-17.4816
1.353684
-36.78847
-10.94939
-1.206664
1.58684
-20.5749
1.837071
15.54084
1.103343
0.9026279
3.75588
0.585249
1.869437
0.8510986
0.4069883
1.732237
2.009682
-51.34322
0.862383
0.9224145
-7.674402
1.971756
2.067419
-28.28045
-11.50143
-28.61161
1.834984
3.275197
20.56552
0.9359471
1.182128
9.070187
1.218152
-58.57804
-0.5146589
0.8341562
0.9686885
1.061854
-5.589912
3.112575
2.489853
-3.842452
0.7353709
0.865575
1.058951
27.06665
2.157876
-7.018409
1.477142
-25.35339
0.8259075
-89.4602
0.8425144
2.046243
4.718276
3.1133
2.393168
-63.95611
-75.68214
-73.54173
0.3679363
-3.036009
-100.9538
2.923147
-3.830468
0.2000508
1.016931
-14.29962
-42.94903
1.588187
-41.17107
0.1726138
4.596289
0.8354548
-17.69355
10.19465
0.2822002
1.804196
1.824787
1.836855
-1.225933
14.91335
1.31666
-2.726
0.6140586
2.030296
0.7095705
1.93506
-4.464153
-1.175501
0.007449088
-12.47496
3.064617
0.430241
-13.58348
2.061768
-13.53225
-8.473916
-6.024231
1.893875
1.704952
1.547409
0.06654747
1.574897
-81.08963
27.49515
-0.8554315
0.8531133
1.388833
-38.37097
0.6572703
3.23291
-5.361702
3.04696
-0.6945051
0.6603084
0.9659843
-26.16979
-1.167199
22.58784
38.96687
1.585394
-4.515056
0.8465908
2.55399
1.064133
2.531285
35.60704
-69.19624
1.374565
7.97511
2.158305
-29.55861
-0.5504168
-1.013083
0.1489423
0.1958015
2.59315
-7.977325
1.012594
2.98773
-14.14179
-11.68658
-16.64988
-3.927131
0.4425695
-88.16009
26.41703
-25.27402
-0.04709604
-2.632947
0.5000891
1.043122
3.932244
33.56412
1.586046
1.467933
-29.75586
1.732882
0.6190045
-27.4467
1.698868
2.167633
1.598887
1.777634
20.67436
1.272091
1.69217
-2.219475
-12.11603
-4.750773
19.93763
3.679015
5.322807
-54.97048
-7.510192
1.288954
0.6078216
1.114337
-15.97962
-48.92858
6.725289
-0.4687752
-0.4354659
2.12318
-27.19116
-18.9202
-1.427898
-15.74129
2.457517
0.6115963
1.629624
0.7350369
-69.21228
-22.86168
-1.196474
4.72071
0.1576536
0.8422981
2.580179
1.813504
0.6814759
-0.9587265
-62.51675
-15.40943
-3.338111
-2.669257
-39.92135
3.364907
3.333394
-13.57421
4.154219
7.251955
1.681235
36.62834
1.660026
0.8948935
1.661148
1.840916
-0.5799462
-13.64045
-24.14722
16.69907
1.168405
1.953192
0.9483068
1.101127
0.6160713
0.5804984
1.058086
1.646074
0.01370527
0.03175708
0.5621832
2.837259
13.25863
8.472371
-0.8309402
1.28618
-2.563233
-2.037723
1.189185
-17.88081
15.53347
-53.77903
-16.20322
1.951071
1.951623
-86.22765
44.90471
-101.2595
3.326338
1.348975
5.727548
-13.85465
11.31457
-29.02153
1.170722
5.202176
-0.2359087
2.820366
1.039033
-0.2771132
-0.9621599
-52.62192
4.953189
1.811324
-1.658293
1.478126
-53.68927
5.979749
-11.81725
1.936185
17.40935
-1.077894
2.24368
2.210407
-0.0006623384
-65.48285
1.436228
4.13886
35.62844
1.76931
1.420262
1.163764
30.59545
10.73886
2.060302
3.675525
-6.11107
1.705183
0.5491787
-54.17409
0.9700122
-76.97197
0.8008724
-1.778547
46.58932
3.656726
0.605836
0.8468108
3.211035
1.905912
2.688543
-32.34129
42.44294
2.342547
-2.43968
47.42014
1.736663
1.479359
0.7747042
-27.79602
1.448559
-8.999593
-5.962298
-0.2087526
-5.061295
-70.04251
0.9241977
0.9605795
0.8925413
1.452091
22.13507
3.000172
0.7725769
1.412664
0.4596826
-0.320797
-0.2567974
-0.1766891
1.429636
0.5953543
3.543544
-10.07945
-76.38881
-2.335113
-13.89963
-20.07885
-1.77604
7.945244
0.1349331
1.469486
4.779853
-62.05627
-6.968906
28.60806
-24.23395
1.180252
2.344783
2.701045
-7.016659
-16.58145
-0.5334384
2.492462
-54.54148
2.82947
-0.8715584
1.605846
1.023133
2.103162
0.7152227
1.302816
1.374716
0.2788751
1.384755
3.576336
-8.596203
0.03810617
1.170487
1.822709
-39.72681
-15.5564
1.801809
0.8194097
1.074268
-13.55535
-34.54141
1.087444
1.980699
0.7222949
1.655646
10.43036
18.87567
0.8857175
0.8963065
1.073638
-7.772743
-77.66937
-71.1915
0.6374433
-3.738862
4.465291
-4.112212
15.18865
2.272635
-1.587716
2.097481
-7.200421
-10.65677
1.793921
-13.16185
-0.2216804
1.251917
30.15984
3.682443
-5.08852
3.700737
3.390307
3.046654
-7.460631
3.503204
4.036956
-16.36758
0.4007238
-1.134008
-16.63867
1.533048