/*--------------------------------*- C++ -*----------------------------------*\
| =========                 |                                                 |
| \\      /  F ield         | OpenFOAM: The Open Source CFD Toolbox           |
|  \\    /   O peration     | Version:  2406                                  |
|   \\  /    A nd           | Website:  www.openfoam.com                      |
|    \\/     M anipulation  |                                                 |
\*---------------------------------------------------------------------------*/
FoamFile
{
    version     2.0;
    format      ascii;
    arch        "LSB;label=32;scalar=64";
    class       surfaceScalarField;
    location    "4";
    object      phi;
}
// * * * * * * * * * * * * * * * * * * * * * * * * * * * * * * * * * * * * * //

dimensions      [0 3 -1 0 0 0 0];

oriented        oriented;

internalField   nonuniform List<scalar> 
23794
(
-0.007451516
0.007669212
-0.000217696
-0.007144278
-0.000307238
-0.006797397
-0.0003468815
-0.00643284
-0.0003645561
-0.00598772
-0.0004451206
-0.00553049
-0.0004572295
-0.005240107
-0.0002903836
-0.005274735
3.462836e-05
-0.005606368
0.0003316335
-0.005849164
0.0002427959
-0.005471473
-0.0003776917
-0.004913468
-0.0005580049
-0.004300127
-0.0006133408
-0.003593093
-0.0007070336
-0.002752346
-0.0008407472
-0.001803968
-0.0009483777
-0.0007487623
-0.001055206
0.0002448552
-0.0009936175
0.0001087448
0.0001361105
-0.0008464629
0.0009552077
-0.001991696
0.001145233
-0.00277765
0.0007859542
-0.002273623
-0.0005040268
-0.0003812229
-0.0018924
0.001856384
-0.002237607
0.004273347
-0.002416962
0.007025229
-0.002751883
0.01025144
-0.003226208
0.008058606
0.002192831
6.632178e-05
0.007992285
-0.006054359
0.006120681
-0.003113932
-0.002940428
0.0006974714
-0.003811403
0.003489871
-0.002792399
0.00663074
-0.003140869
0.00875369
-0.00212295
0.006570985
0.002182705
0.002308374
0.004262611
-5.503307e-06
0.002313877
-0.002931287
0.002925784
-0.007408133
0.004476846
-0.01041247
0.003004341
-0.01198697
0.001574497
-0.01285783
0.0008708605
-0.01340341
0.0005455799
-0.01368572
0.0002823098
-0.01382989
0.0001441711
-0.01388459
5.469743e-05
-0.01385869
-2.590212e-05
-0.01380147
-5.721562e-05
-0.01368337
-0.0001181021
-0.01351995
-0.0001634209
-0.01329654
-0.0002234072
-0.013046
-0.0002505404
-0.01277483
-0.0002711753
-0.01244887
-0.0003259538
-0.01210057
-0.0003482982
-0.01174135
-0.0003592264
-0.01131906
-0.0004222852
-0.01087254
-0.0004465266
-0.01039966
-0.0004728726
-0.009918252
-0.000481412
-0.009414853
-0.000503399
-0.008863196
-0.000551657
-0.008316693
-0.0005465029
-0.007729272
-0.0005874209
-0.007124546
-0.0006047257
-0.006511605
-0.0006129415
-0.005888969
-0.0006226353
-0.005236866
-0.000652103
-0.004581189
-0.000655677
-0.003915971
-0.0006652182
-0.003235448
-0.0006805229
-0.002549092
-0.0006863562
-0.001883573
-0.0006655187
-0.001172853
-0.0007107201
-0.0004889308
-0.0006839224
0.0001592024
-0.0006481331
0.000787028
-0.0006278256
0.001530272
-0.0007432445
0.00226654
-0.0007362678
0.002992419
-0.0007258784
0.003703947
-0.0007115289
0.004396677
-0.0006927296
0.005087433
-0.0006907564
0.00575557
-0.0006681362
0.006434227
-0.0006786575
0.007092218
-0.0006579913
0.007714835
-0.000622617
0.008341125
-0.00062629
0.008954664
-0.0006135385
0.009545734
-0.0005910705
0.01013442
-0.0005886873
0.01070985
-0.0005754286
0.01123035
-0.0005205036
0.01174834
-0.0005179906
0.01225226
-0.0005039113
0.01271511
-0.0004628544
0.01318047
-0.000465363
0.01359361
-0.0004131415
0.0139805
-0.0003868856
0.01432927
-0.0003487703
0.01463621
-0.0003069417
0.01494092
-0.0003047086
0.0152097
-0.0002687787
0.01544088
-0.0002311801
0.01563125
-0.0001903742
0.0157815
-0.0001502446
0.01590484
-0.000123339
0.01596733
-6.249514e-05
0.01601347
-4.613573e-05
0.01598857
2.49004e-05
0.01579812
0.0001904455
0.01547277
0.0003253505
0.01501237
0.0004604045
0.01434084
0.0006715303
0.01321943
0.001121403
0.01111335
0.002106081
0.007235548
0.003877805
0.002259196
0.004976353
7.800884e-05
0.002181187
-0.002079284
0.002157293
-0.007194523
0.005115239
-0.009413658
0.002219135
-0.006954343
-0.002459315
-0.003763186
-0.003191157
-0.001618433
-0.002144754
0.00118441
-0.002802843
0.005075904
-0.003891493
0.004669692
0.0004062113
-0.004732065
0.009401758
-0.01115081
0.006418743
-0.01016037
-0.0009904428
-0.008122044
-0.002038321
-0.005996376
-0.002125668
-0.004092572
-0.001903804
-0.002098049
-0.001994523
0.0004928865
-0.002590936
0.002828808
-0.002335921
0.003151791
-0.0003229828
0.002668725
0.0004830659
0.002407599
0.0002611256
0.002197121
0.0002104789
0.002687623
-0.0004905023
0.003816097
-0.001128474
0.00355937
0.0002567268
0.0008497504
0.00270962
-0.0008349142
0.001684665
0.0002212299
-0.001056144
0.001305222
-0.001083992
-0.0002417568
0.001546979
-0.003150314
0.002908557
-0.005545908
0.002395595
-0.006937352
0.001391443
-0.007568541
0.0006311895
-0.007748953
0.0001804122
-7.974102e-05
-0.01056046
0.01067512
-0.0003323623
-0.01045037
-0.0004173212
-0.01041643
-0.00038082
-0.01043996
-0.0003410353
-0.0103647
-0.0005203784
-0.01013866
-0.0006832716
-0.009789227
-0.0006398119
-0.009287436
-0.0004671635
-0.008628918
-0.0003268845
-0.007911331
-0.0004747903
-0.007102192
-0.001186831
-0.006413366
-0.001246831
-0.005592094
-0.001434612
-0.004648486
-0.001650642
-0.003556103
-0.00193313
-0.002308313
-0.002196168
-0.0008654701
-0.002498049
0.0003266358
-0.002185723
1.983528e-05
0.000442911
-0.001798733
0.002773776
-0.003951489
0.003297989
-0.00450248
0.001336945
-0.00283702
-0.002169487
-0.0001255049
-0.004603915
0.00234623
-0.004709342
0.004961109
-0.005031841
0.008076878
-0.005867652
0.01181879
-0.006968125
0.01140154
0.002610086
0.002611796
0.01678203
-0.006654846
0.01538732
-0.005288451
-0.004306823
-0.002301701
-0.006798152
-0.0006697802
-0.00442432
0.001811835
-0.005622485
0.0049888
-0.005299915
0.005982104
0.001189401
0.001958476
0.008286239
-0.006614576
0.01088693
-0.01442556
0.01073677
-0.01835777
0.008409051
-0.01972188
0.004368449
-0.02005298
0.001905597
-0.02014226
0.0009601432
-0.02013265
0.0005359729
-0.01999627
0.0001459294
-0.01983119
-2.091752e-05
-0.0196566
-0.0001198927
-0.01944407
-0.000238429
-0.01921292
-0.0002883622
-0.01891773
-0.0004132908
-0.01857872
-0.0005024322
-0.01817548
-0.000626652
-0.01774415
-0.0006818719
-0.01729766
-0.000717658
-0.01679228
-0.0008313366
-0.01626036
-0.0008802172
-0.01572113
-0.0008984582
-0.01510973
-0.00103368
-0.01447512
-0.001081143
-0.01381015
-0.00113784
-0.01313503
-0.001156529
-0.01243978
-0.001198651
-0.01168729
-0.001304146
-0.01094276
-0.001291033
-0.01015524
-0.001374939
-0.009345518
-0.001414451
-0.008529494
-0.001428966
-0.007706133
-0.001445996
-0.006846791
-0.001511445
-0.005982487
-0.001519981
-0.005109236
-0.001538469
-0.004219139
-0.00157062
-0.003324899
-0.001580597
-0.00245165
-0.001538768
-0.001531867
-0.001630503
-0.0006418017
-0.001573987
0.0002083207
-0.001498256
0.001035366
-0.001454871
0.001991013
-0.001698891
0.002943641
-0.001688895
0.003885165
-0.001667403
0.004808776
-0.00163514
0.005713546
-0.001597499
0.006618065
-0.001595276
0.007496738
-0.001546809
0.008388176
-0.001570096
0.009256635
-0.00152645
0.01008197
-0.001447949
0.01091432
-0.001458642
0.01173628
-0.0014355
0.0125299
-0.001384695
0.01332169
-0.001380476
0.01410232
-0.001356052
0.01481846
-0.001236645
0.01553594
-0.001235474
0.01623774
-0.001205708
0.01689374
-0.001118861
0.0175547
-0.001126314
0.01815425
-0.001012696
0.01873187
-0.0009645032
0.01926665
-0.000883549
0.01975546
-0.0007957575
0.02024878
-0.0007980254
0.02070376
-0.000723764
0.02111739
-0.0006448024
0.02148931
-0.0005622987
0.02181971
-0.000480644
0.02212399
-0.000427616
0.02236722
-0.0003057252
0.02260792
-0.0002868423
0.02282356
-0.0001907342
0.02295147
6.253271e-05
0.02303842
0.0002384039
0.02309711
0.0004017118
0.02310884
0.0006598057
0.02298247
0.001247769
0.02247468
0.002613873
0.02036596
0.005986521
0.01539756
0.009944755
0.006916144
0.0106626
-0.001770667
0.0108441
-0.005736093
0.009080664
-0.004594395
0.001077438
-0.00111331
-0.0059404
0.001508684
-0.005813151
0.00280559
-0.00344166
0.004339601
-0.004336854
0.00749749
-0.007049381
0.002945646
0.004958055
-0.009391841
0.02173924
-0.01414003
0.01116693
-0.01184937
-0.003281101
-0.009702474
-0.004185215
-0.007319517
-0.004508625
-0.005192318
-0.004031003
-0.003002242
-0.004184599
8.878801e-05
-0.005681966
0.003758637
-0.00600577
0.005373882
-0.001938228
0.00468898
0.001167968
0.003230614
0.001719492
0.002155623
0.001285469
0.002539558
-0.000874437
0.003800544
-0.00238946
0.004305415
-0.0002481435
0.00203999
0.004975045
-0.0002945768
0.004019231
-0.001280166
-7.055457e-05
-0.003177783
0.000813624
-0.006272604
0.004641801
-0.009176633
0.005812585
-0.01053954
0.003758507
-0.0108282
0.001680096
-0.0108182
0.0006211904
-0.01076027
0.000122481
-0.0001648848
-0.01394839
0.01382262
-0.0002065859
-0.01401309
-0.000352623
-0.01396781
-0.0004261045
-0.01372158
-0.0005872651
-0.01318661
-0.001055348
-0.01248967
-0.001380206
-0.0117668
-0.001362684
-0.0109948
-0.001239166
-0.01019585
-0.001125827
-0.009515873
-0.001154771
-0.008659978
-0.002042726
-0.007820497
-0.002086312
-0.006831373
-0.002423736
-0.005704256
-0.002777758
-0.004385178
-0.003252209
-0.002893873
-0.003687472
-0.001209008
-0.004182914
0.0003759574
-0.003770689
8.77593e-06
0.0008100925
-0.002333887
0.005116439
-0.004682502
0.005646604
-0.004845839
0.001500283
-0.002598655
-0.004416672
0.0002778456
-0.007480416
0.002520239
-0.006951735
0.005171674
-0.007683276
0.008658448
-0.009354426
0.01295301
-0.01126269
0.01288224
0.002680858
0.005076818
0.02458745
-0.005601256
0.0260654
-0.00826702
-0.001641059
-0.008508027
-0.006557145
-0.008528649
-0.004403698
-0.006360498
-0.007790636
-0.002688193
-0.008972219
0.0001281936
-0.001626986
-0.006073534
0.01448797
-0.01717135
0.02198475
-0.02282653
0.01639195
-0.02356162
0.00914414
-0.02346874
0.004275569
-0.02355375
0.001990609
-0.02366621
0.001072604
-0.0237383
0.0006080602
-0.02365779
6.541689e-05
-0.02352395
-0.0001547573
-0.02335084
-0.0002930012
-0.02311123
-0.000478035
-0.0228467
-0.0005528929
-0.02250431
-0.000755679
-0.02211044
-0.0008963101
-0.02163875
-0.001098333
-0.02113301
-0.001187613
-0.02061026
-0.001240412
-0.02001433
-0.001427262
-0.01938669
-0.001507862
-0.01875171
-0.001533435
-0.01802764
-0.001757756
-0.01727596
-0.001832817
-0.01648759
-0.001926211
-0.01568678
-0.001957344
-0.01486185
-0.002023579
-0.01396599
-0.00220001
-0.0130808
-0.002176215
-0.0121417
-0.002314044
-0.01117614
-0.002380013
-0.01020221
-0.002402889
-0.009218973
-0.002429237
-0.008192087
-0.002538331
-0.00715885
-0.002553218
-0.006113814
-0.002583504
-0.005048878
-0.002635556
-0.003977733
-0.002651742
-0.002929559
-0.002586942
-0.001828153
-0.002731909
-0.000760376
-0.002641764
0.0002642856
-0.002522917
0.00126457
-0.002455155
0.002405429
-0.00283975
0.003543694
-0.00282716
0.004668791
-0.0027925
0.005771332
-0.002737682
0.00685142
-0.002677587
0.007930832
-0.002674688
0.008978385
-0.002594361
0.0100411
-0.002632807
0.01107501
-0.002560365
0.01205701
-0.002429944
0.01304734
-0.002448975
0.01402402
-0.002412181
0.01496631
-0.002326984
0.01590651
-0.002320681
0.0168326
-0.002282141
0.01768047
-0.002084513
0.01853061
-0.002085613
0.01936106
-0.00203616
0.02013511
-0.001892912
0.02091712
-0.001908323
0.02162288
-0.001718457
0.02230336
-0.001644982
0.02293125
-0.00151144
0.02350206
-0.001366567
0.02407977
-0.001375735
0.02460942
-0.001253412
0.02509035
-0.001125735
0.02552005
-0.0009919945
0.02589988
-0.0008604793
0.02624878
-0.0007765099
0.02652321
-0.0005801534
0.0267955
-0.0005591415
0.02701252
-0.0004077518
0.0270876
-1.254525e-05
0.02709931
0.0002266908
0.0270769
0.0004241269
0.02702411
0.0007125985
0.02693012
0.001341757
0.02698608
0.002557914
0.0271687
0.005803893
0.0259449
0.01116856
0.01890223
0.01770527
0.006566995
0.02317934
0.000620655
0.015027
0.003852338
-0.002154245
0.007973103
-0.01006117
0.01058932
-0.00842937
0.01090916
-0.0037615
0.009972699
-0.003400391
0.009166777
-0.006243459
0.0005335859
0.01359125
-0.01112642
0.03339925
-0.01463183
0.01467234
-0.01252059
-0.005392348
-0.01028875
-0.006417055
-0.007869017
-0.006928356
-0.005807319
-0.006092701
-0.003750393
-0.006241524
-0.0005909058
-0.008841453
0.003760155
-0.01035683
0.006138917
-0.00431699
0.005349355
0.00195753
0.003059734
0.004009113
0.001545688
0.002799515
0.002134672
-0.001463421
0.003590767
-0.003845555
0.00406261
-0.0007199863
0.002026222
0.007011432
-0.001802135
0.007847588
-0.005852685
0.003979995
-0.009462759
0.004423698
-0.01169099
0.006870035
-0.01273618
0.006857769
-0.01296322
0.003985551
-0.01317375
0.001890622
-0.01344501
0.0008924493
-0.01366325
0.0003407252
-5.520174e-06
-0.01735457
0.01727964
-0.0001316599
-0.01724195
-0.000465241
-0.01690756
-0.0007604954
-0.01635222
-0.001142597
-0.01557038
-0.001837197
-0.01473949
-0.002211088
-0.01397288
-0.002129299
-0.01316757
-0.002044473
-0.01227109
-0.00202231
-0.01147552
-0.001950338
-0.01041963
-0.003098615
-0.009406215
-0.00309973
-0.008222068
-0.003607883
-0.006863446
-0.004136381
-0.005278409
-0.004837245
-0.00352133
-0.005444551
-0.001593455
-0.00611079
0.0005007354
-0.005864879
0.0002160087
0.001094819
-0.00231621
0.007648657
-0.004529021
0.007859416
-0.004372019
0.00134328
-0.001984432
-0.006804258
0.0005761415
-0.01004099
0.002343324
-0.008718917
0.005055204
-0.01039516
0.008995322
-0.01329454
0.01414297
-0.01641034
0.01369065
0.003133178
0.006552407
0.0317257
-0.004810542
0.03742835
-0.01222691
0.005775309
-0.01626462
-0.002519439
-0.01797298
-0.002695333
-0.01704973
-0.008713891
-0.01459009
-0.01143186
-0.01481569
-0.001401384
-0.02041402
0.0200863
-0.02686062
0.02843135
-0.02818111
0.01771245
-0.02780324
0.008766267
-0.02808175
0.004554077
-0.02843923
0.002348093
-0.02865607
0.001289448
-0.02875982
0.0007118087
-0.02864404
-5.036664e-05
-0.02845617
-0.0003426303
-0.02822201
-0.0005271625
-0.02791084
-0.0007891982
-0.02757245
-0.0008912823
-0.02714363
-0.001184499
-0.02665512
-0.001384821
-0.02607447
-0.001678981
-0.02545381
-0.00180828
-0.02481424
-0.001879983
-0.02408909
-0.002152411
-0.02332614
-0.002270814
-0.02255507
-0.002304502
-0.02168062
-0.002632201
-0.02077143
-0.002742011
-0.01981934
-0.002878303
-0.01885368
-0.002922999
-0.0178606
-0.003016657
-0.01678131
-0.003279298
-0.01571763
-0.003239902
-0.01458804
-0.00344363
-0.01342846
-0.003539593
-0.01225796
-0.003573386
-0.01107683
-0.003610368
-0.009843537
-0.003771627
-0.00860262
-0.003794135
-0.007347177
-0.003838948
-0.006069956
-0.003912776
-0.004782989
-0.003938709
-0.003523179
-0.003846753
-0.00219845
-0.004056638
-0.0009123942
-0.00392782
0.0003285942
-0.003763905
0.00154404
-0.003670601
0.002912246
-0.004207956
0.004274996
-0.004189911
0.005624959
-0.004142463
0.006946017
-0.00405874
0.008238926
-0.003970496
0.00953014
-0.003965903
0.01078265
-0.003846872
0.0120559
-0.003906051
0.01329236
-0.003796832
0.01447014
-0.00360772
0.01565951
-0.003638342
0.01683093
-0.003583601
0.01796487
-0.003460928
0.01909851
-0.003454326
0.02021236
-0.003395983
0.02123636
-0.003108521
0.02226404
-0.00311329
0.0232671
-0.003039216
0.02420502
-0.002830839
0.02515323
-0.002856529
0.02601106
-0.002576288
0.02683867
-0.002472586
0.02760447
-0.00227724
0.0283054
-0.002067503
0.02901445
-0.002084786
0.02966597
-0.00190493
0.0302622
-0.001721968
0.03079605
-0.001525841
0.03127362
-0.001338044
0.03171612
-0.001219011
0.03207071
-0.000934748
0.03242385
-0.0009122786
0.03271541
-0.0006993148
0.03283538
-0.0001325112
0.03286497
0.0001970934
0.03283631
0.0004527943
0.03273494
0.0008139668
0.03248645
0.001590248
0.03214766
0.002896699
0.03209202
0.005859534
0.0326601
0.01060048
0.03055117
0.0198142
0.02265582
0.03107469
0.01639814
0.02128468
0.01671749
-0.002473585
0.01986055
-0.01320423
0.02142668
-0.009995497
0.02069499
-0.003029819
0.01726117
3.343502e-05
0.01156528
-0.0005475684
-0.0004100607
0.02556658
-0.01143954
0.04442874
-0.0144618
0.0176946
-0.01220777
-0.00764638
-0.009842174
-0.008782647
-0.00741934
-0.00935119
-0.005671001
-0.00784104
-0.004087963
-0.007824562
-0.001316382
-0.01161303
0.003239206
-0.01491242
0.00599098
-0.007068764
0.005017227
0.002931283
0.002178681
0.006847659
0.0006687815
0.004309414
0.001527333
-0.002321973
0.00296491
-0.005283132
0.002920215
-0.0006752908
0.0006880456
0.009243601
-0.004850134
0.01338577
-0.01088654
0.0100164
-0.0142474
0.007784559
-0.01521632
0.007838962
-0.01539263
0.007034076
-0.0157572
0.00435012
-0.01632011
0.00245353
-0.01677288
0.001345225
-0.01708356
0.0006513991
0.0001905616
-0.02081538
0.02088614
-0.0002024204
-0.02051447
-0.0007661502
-0.01998905
-0.00128592
-0.01929223
-0.001839414
-0.01839122
-0.00273821
-0.01746027
-0.00314204
-0.01659394
-0.002995628
-0.01565946
-0.002978949
-0.01455167
-0.003130106
-0.01360863
-0.002893377
-0.01230539
-0.004401853
-0.0110907
-0.004314414
-0.009671944
-0.005026643
-0.008050455
-0.00575787
-0.006168308
-0.006719392
-0.004083429
-0.00752943
-0.001782596
-0.008411623
0.0006517742
-0.008299249
0.0006964535
0.00105014
-0.001625088
0.009970199
-0.003856172
0.0100905
-0.003604664
0.001091772
-0.001349637
-0.009059285
0.0006079101
-0.01199854
0.001685009
-0.009796017
0.00441802
-0.01312817
0.008637202
-0.01751373
0.01461747
-0.02239061
0.01374165
0.004008993
0.006897777
0.03856957
-0.005225543
0.04955167
-0.01709313
0.01764289
-0.02444948
0.004836916
-0.02783257
0.0006877524
-0.02918953
-0.007356932
-0.03014446
-0.01047692
-0.03206488
0.0005190317
-0.03389717
0.02191859
-0.03396771
0.02850189
-0.03292607
0.01667081
-0.03295253
0.008792724
-0.03345419
0.005055735
-0.03385631
0.002750218
-0.03410907
0.00154221
-0.03426035
0.0008630848
-0.0341538
-0.0001569154
-0.03395597
-0.0005404635
-0.03370398
-0.0007791564
-0.03334107
-0.001152107
-0.03296246
-0.001269888
-0.03245919
-0.001687774
-0.03189014
-0.001953867
-0.0312032
-0.002365916
-0.03046906
-0.002542427
-0.02971547
-0.002633568
-0.02885155
-0.00301633
-0.02794276
-0.00317961
-0.02702767
-0.003219588
-0.02598512
-0.003674754
-0.0248979
-0.003829234
-0.02375999
-0.004016206
-0.022608
-0.004074995
-0.02142285
-0.004201802
-0.02012811
-0.004574044
-0.01885918
-0.004508831
-0.01750517
-0.004797643
-0.01611868
-0.004926083
-0.01471709
-0.004974968
-0.01330475
-0.005022708
-0.0118264
-0.005249982
-0.01033848
-0.005282052
-0.008830161
-0.005347268
-0.00729918
-0.005443757
-0.005754307
-0.005483581
-0.004243958
-0.005357103
-0.002649566
-0.005651029
-0.001098488
-0.005478898
0.0004049715
-0.005267365
0.001880895
-0.005146525
0.003524287
-0.005851348
0.005156451
-0.005822075
0.006777059
-0.005763071
0.008355061
-0.005636741
0.009895716
-0.005511151
0.01143561
-0.005505796
0.01292941
-0.00534067
0.01445438
-0.005431028
0.01592941
-0.005271862
0.01734162
-0.005019931
0.01877041
-0.005067131
0.0201692
-0.004982385
0.02152877
-0.004820499
0.02289314
-0.004818701
0.0242237
-0.004726543
0.02544931
-0.004334131
0.02668179
-0.004345763
0.02788073
-0.00423816
0.02899814
-0.003948245
0.03013425
-0.003992646
0.03115558
-0.003597617
0.0321404
-0.003457406
0.03304975
-0.003186585
0.03387774
-0.002895497
0.0347189
-0.00292594
0.03548315
-0.002669189
0.03618644
-0.00242526
0.03680747
-0.002146867
0.03736099
-0.001891567
0.03787641
-0.001734423
0.03827123
-0.001329575
0.03867423
-0.001315275
0.03899481
-0.001019892
0.03910668
-0.0002443829
0.03911297
0.0001908056
0.03904397
0.0005217903
0.03890209
0.0009558443
0.03861434
0.001877995
0.03823147
0.003279572
0.03783065
0.006260356
0.03810188
0.01032926
0.03921843
0.01869765
0.03868598
0.03160714
0.03645145
0.02351921
0.03465891
-0.0006810491
0.03401602
-0.01256134
0.03312873
-0.009108203
0.03098244
-0.0008835309
0.02572084
0.005295039
0.01551285
0.009660415
0.000214834
0.0408646
-0.01049835
0.05514192
-0.01372517
0.02092142
-0.01093172
-0.01043983
-0.008376207
-0.01133816
-0.005682866
-0.01204453
-0.004329215
-0.009194691
-0.003551799
-0.008601978
-0.001733614
-0.01343122
0.002334368
-0.0189804
0.005030404
-0.0097648
0.003756443
0.004205245
0.0007152992
0.009888803
-0.0005211917
0.005545905
0.0004692749
-0.00331244
0.00146652
-0.006280377
0.0009699968
-0.0001787674
-0.002301221
0.01251482
-0.009029671
0.02011422
-0.01523161
0.01621834
-0.01754854
0.01010149
-0.01809434
0.008384755
-0.01850831
0.007448045
-0.01923936
0.00508117
-0.01994815
0.003162323
-0.02045383
0.001850905
-0.02076401
0.0009615796
0.0003126956
-0.02464619
0.02484083
-0.0003970561
-0.02418452
-0.001227817
-0.02348307
-0.00198737
-0.02264682
-0.002675664
-0.0215697
-0.003815333
-0.02044941
-0.00426233
-0.0193881
-0.004056942
-0.01827002
-0.004097022
-0.01686955
-0.004530583
-0.01579453
-0.003968396
-0.0142026
-0.005993778
-0.01279263
-0.005724389
-0.01111347
-0.006705799
-0.009199489
-0.007671853
-0.007002339
-0.008916542
-0.00457742
-0.00995435
-0.001864747
-0.0111243
0.0007973171
-0.01096131
0.001423061
0.0004243958
-0.0002215899
0.01161485
-0.002775646
0.01264456
-0.00305192
0.001368046
-0.001140789
-0.01097042
-1.435435e-07
-0.01313918
0.0002968765
-0.01009304
0.002700561
-0.01553185
0.00678132
-0.02159448
0.01357471
-0.02918399
0.01257173
0.005011973
0.005632854
0.04550845
-0.007460439
0.06264496
-0.02217579
0.03235824
-0.03097532
0.01363645
-0.03505647
0.004768902
-0.03797154
-0.004441859
-0.04123694
-0.007211524
-0.04392436
0.003206447
-0.04314911
0.02114333
-0.04029346
0.02564624
-0.03935398
0.01573133
-0.03988705
0.009325797
-0.04040979
0.005578477
-0.04088266
0.003223085
-0.04113565
0.001795205
-0.04129659
0.001024017
-0.0411082
-0.0003452987
-0.04085094
-0.0007977282
-0.04052956
-0.001100532
-0.04007001
-0.001611664
-0.03961235
-0.001727547
-0.03899419
-0.002305934
-0.03830565
-0.002642406
-0.0374712
-0.003200367
-0.03658022
-0.003433402
-0.03567379
-0.003540001
-0.03462846
-0.004061659
-0.03353267
-0.004275397
-0.03243649
-0.004315773
-0.03118279
-0.004928454
-0.02987115
-0.005140874
-0.02850484
-0.00538251
-0.02712199
-0.005457852
-0.02570329
-0.005620497
-0.02414281
-0.006134527
-0.02262871
-0.006022932
-0.02100098
-0.006425371
-0.01933951
-0.006587551
-0.01766024
-0.006654238
-0.01597229
-0.006710663
-0.01420439
-0.007017881
-0.01242791
-0.007058529
-0.01061761
-0.007157566
-0.008783978
-0.007277393
-0.006922772
-0.007344787
-0.005117877
-0.007161998
-0.003202331
-0.007566575
-0.001325506
-0.007355722
0.0004965134
-0.007089385
0.002287723
-0.006937734
0.004266286
-0.007829911
0.006226101
-0.00778189
0.008160609
-0.007697579
0.01003364
-0.007509777
0.01186484
-0.007342346
0.01370207
-0.007343025
0.01548814
-0.007126747
0.01732417
-0.007267056
0.01908647
-0.007034163
0.02078706
-0.00672052
0.0225137
-0.006793769
0.02418683
-0.006655508
0.02581864
-0.006452313
0.02747327
-0.006473336
0.02906722
-0.006320488
0.03053652
-0.005803434
0.03202182
-0.005831059
0.03346391
-0.005680255
0.03480252
-0.005286851
0.03617332
-0.005363445
0.03740296
-0.00482726
0.03858924
-0.004643689
0.03968283
-0.004280165
0.04068385
-0.00389652
0.04170651
-0.0039486
0.04262607
-0.003588753
0.04348731
-0.003286495
0.04423975
-0.002899313
0.04492016
-0.002571968
0.04555607
-0.002370334
0.04605023
-0.001823735
0.04655269
-0.001817742
0.04694904
-0.001416237
0.04712572
-0.0004210596
0.04716446
0.0001520576
0.04713239
0.0005538605
0.04700167
0.001086563
0.04668313
0.002196535
0.04624975
0.003712957
0.04577942
0.006730688
0.04534325
0.01076543
0.0466003
0.0174406
0.04992594
0.02828149
0.0508834
0.02256175
0.04812969
0.002072662
0.04478416
-0.009215811
0.042065
-0.006389044
0.0389545
0.002226963
0.03336587
0.01088368
0.02083021
0.02219607
0.003943881
0.05775093
-0.007256498
0.06634229
-0.0109269
0.02459183
-0.007893806
-0.01347293
-0.005828287
-0.01340368
-0.002735275
-0.01513754
-0.001552625
-0.01037734
-0.001453636
-0.008700967
-0.001074317
-0.01381054
0.001589535
-0.02164425
0.003618456
-0.01179372
0.001830303
0.005993398
-0.001027409
0.01274651
-0.001976091
0.006494588
-0.001378166
-0.003910365
-0.0009287249
-0.006729818
-0.001823598
0.0007161061
-0.006759163
0.01745038
-0.01402879
0.02738385
-0.01896953
0.02115907
-0.02049282
0.01162478
-0.02139641
0.009288346
-0.02225032
0.008301953
-0.02318466
0.006015511
-0.02397429
0.003951957
-0.02452487
0.00240149
-0.02481532
0.001252026
0.0003382013
-0.02877385
0.02912587
-0.0007490771
-0.02811151
-0.001890158
-0.02712699
-0.002971893
-0.02602097
-0.003781681
-0.02462977
-0.005206537
-0.02321688
-0.005675218
-0.02187351
-0.005400315
-0.02058348
-0.005387053
-0.01879006
-0.006323998
-0.01762682
-0.005131634
-0.01573368
-0.007886922
-0.01425271
-0.007205354
-0.01240883
-0.008549685
-0.01019977
-0.009880914
-0.007675708
-0.0114406
-0.004982732
-0.01264732
-0.001902003
-0.01420503
0.001107734
-0.01397105
0.002265178
-0.000733049
0.001623693
0.01225634
-0.001165765
0.01543401
-0.002583229
0.00278551
-0.00166137
-0.01189228
-0.001884762
-0.01291579
-0.002917897
-0.009059902
-0.001123213
-0.01732654
0.002494359
-0.02521206
0.009706835
-0.03639647
0.008626893
0.006091915
0.00164412
0.05249122
-0.01262638
0.07691546
-0.028178
0.04790987
-0.03686082
0.02231927
-0.04107599
0.00898407
-0.04472697
-0.0007908708
-0.04889472
-0.003043778
-0.05182508
0.006136807
-0.0506131
0.01993136
-0.04788288
0.02291602
-0.04745841
0.01530686
-0.04793985
0.009807232
-0.04840312
0.006041749
-0.04895122
0.003771189
-0.0492109
0.002054879
-0.04943135
0.001244467
-0.04924548
-0.0005311695
-0.04894947
-0.001093738
-0.04857401
-0.001475994
-0.0479993
-0.002186366
-0.04748662
-0.002240236
-0.04673133
-0.003061217
-0.04592238
-0.003451361
-0.04492251
-0.004200235
-0.04384835
-0.004507566
-0.04277339
-0.004614956
-0.04152441
-0.005310638
-0.04020968
-0.005590132
-0.03889408
-0.005631366
-0.03740035
-0.00642219
-0.03582942
-0.006711801
-0.03419323
-0.007018697
-0.03251719
-0.007133892
-0.03084204
-0.007295656
-0.02895137
-0.008025188
-0.02715009
-0.007824217
-0.02518608
-0.008389382
-0.02319854
-0.008575089
-0.02119227
-0.008660512
-0.01914133
-0.008761596
-0.01704249
-0.009116729
-0.01492921
-0.009171806
-0.0127636
-0.009323173
-0.01059149
-0.009449507
-0.008318846
-0.009617428
-0.00618252
-0.009298324
-0.003881297
-0.009867798
-0.001603638
-0.009633382
0.0006090618
-0.009302085
0.002782051
-0.009110723
0.005167415
-0.01021528
0.007523625
-0.0101381
0.009793493
-0.009967447
0.01201488
-0.00973116
0.01420975
-0.00953722
0.01640556
-0.009538832
0.01854749
-0.009268675
0.02077892
-0.00949849
0.02289191
-0.009147152
0.02493118
-0.008759793
0.02700595
-0.008868537
0.02902713
-0.008676695
0.03098891
-0.008414088
0.03296636
-0.008450784
0.03488141
-0.008235544
0.03663771
-0.007559735
0.03841672
-0.007610064
0.04012519
-0.007388725
0.04174363
-0.006905293
0.04338917
-0.007008987
0.04485186
-0.006289948
0.04628561
-0.006077439
0.0475771
-0.005571652
0.04877514
-0.005094563
0.05000556
-0.005179016
0.05108517
-0.004668364
0.05212682
-0.004328147
0.05300252
-0.003775011
0.05381605
-0.003385505
0.054581
-0.00313528
0.05514201
-0.002384741
0.05574074
-0.00241648
0.05623272
-0.001908216
0.05640762
-0.0005959582
0.05643639
0.0001232886
0.05634902
0.0006412366
0.05618674
0.001248837
0.05582093
0.002562345
0.05538101
0.004152884
0.05501041
0.007101282
0.05459492
0.01118092
0.05523046
0.01680506
0.05865934
0.02485262
0.06029419
0.0209269
0.05719807
0.00516878
0.05276988
-0.004787618
0.04929235
-0.002911517
0.04564644
0.005872879
0.04054523
0.01598488
0.02796832
0.03477298
0.0113728
0.07434646
-0.00112931
0.0788444
-0.003918247
0.02738077
-0.001462
-0.01592917
-0.0009902241
-0.01387546
0.001999758
-0.01812753
0.003098395
-0.01147598
0.002715133
-0.008317705
0.001712887
-0.01280829
0.001992161
-0.02192353
0.002273844
-0.0120754
-0.0003039982
0.00857124
-0.002891781
0.0153343
-0.003957389
0.007560196
-0.004573177
-0.003294578
-0.005048689
-0.006254306
-0.007142449
0.002809866
-0.01321404
0.02352198
-0.01952068
0.03369048
-0.02244868
0.02408708
-0.02368624
0.01286234
-0.02513858
0.01074068
-0.02628531
0.009448688
-0.0273827
0.007112897
-0.0282877
0.004856959
-0.02890655
0.003020343
-0.0291977
0.001543178
0.0002663704
-0.03288558
0.03360658
-0.001470076
-0.03185431
-0.00292143
-0.03033456
-0.004491638
-0.02884576
-0.005270487
-0.02711057
-0.006941717
-0.02529046
-0.007495328
-0.02349004
-0.007200741
-0.0221211
-0.006755985
-0.01973425
-0.00871085
-0.01860109
-0.006264792
-0.01624693
-0.01024109
-0.01481351
-0.008638775
-0.01323231
-0.01013089
-0.01078661
-0.01232661
-0.007965416
-0.0142618
-0.005175408
-0.01543733
-0.00179869
-0.01758174
0.001601399
-0.01737114
0.002918377
-0.002050027
0.003261697
0.01191302
0.0007455561
0.01795015
-0.002266715
0.005797781
-0.003896748
-0.01026224
-0.006080088
-0.01073245
-0.008159865
-0.006980125
-0.007324586
-0.01816181
-0.005464937
-0.0270717
2.767511e-06
-0.04186418
-0.0003033844
0.006398067
-0.007947792
0.06013563
-0.0214256
0.09039327
-0.03604284
0.0625271
-0.04395317
0.0302296
-0.04847163
0.01350253
-0.05268997
0.003427467
-0.05710785
0.001374105
-0.06022301
0.009251967
-0.05963446
0.0193428
-0.05763583
0.02091739
-0.05738972
0.01506075
-0.05780876
0.01022627
-0.05824924
0.006482228
-0.05893033
0.004452283
-0.05909489
0.002219437
-0.05937134
0.001520916
-0.05907519
-0.0008273152
-0.05871442
-0.001454515
-0.05832265
-0.001867764
-0.05756421
-0.002944803
-0.05698514
-0.002819309
-0.05606518
-0.00398117
-0.05512015
-0.004396393
-0.0539012
-0.005419181
-0.05258217
-0.005826604
-0.05131496
-0.005882163
-0.04984561
-0.006779987
-0.04820949
-0.007226249
-0.04663703
-0.007203825
-0.04487053
-0.008188694
-0.04300436
-0.008577974
-0.04100916
-0.009013888
-0.03897673
-0.009166326
-0.03705906
-0.009213329
-0.03470619
-0.01037806
-0.03259469
-0.009935715
-0.03016482
-0.01081925
-0.02783692
-0.01090299
-0.02543908
-0.01105836
-0.02294126
-0.01125942
-0.02046358
-0.01159441
-0.01790991
-0.01172547
-0.01530273
-0.01193035
-0.01276607
-0.01198616
-0.01000227
-0.01238123
-0.007506199
-0.0117944
-0.004703663
-0.01267033
-0.001955755
-0.01238129
0.0007440345
-0.01200187
0.003400501
-0.01176719
0.006300006
-0.01311478
0.009019465
-0.01285756
0.01166857
-0.01261655
0.01434979
-0.01241238
0.01702921
-0.01221663
0.01967723
-0.01218685
0.02221896