/*--------------------------------*- C++ -*----------------------------------*\
| =========                 |                                                 |
| \\      /  F ield         | OpenFOAM: The Open Source CFD Toolbox           |
|  \\    /   O peration     | Version:  2406                                  |
|   \\  /    A nd           | Website:  www.openfoam.com                      |
|    \\/     M anipulation  |                                                 |
\*---------------------------------------------------------------------------*/
FoamFile
{
    version     2.0;
    format      ascii;
    arch        "LSB;label=32;scalar=64";
    class       volVectorField;
    location    "4";
    object      U;
}
// * * * * * * * * * * * * * * * * * * * * * * * * * * * * * * * * * * * * * //

dimensions      [0 1 -1 0 0 0 0];

internalField   nonuniform List<vector> 
15536
(
(0.29546 -7.785054 -1.249693e-21)
(0.5646082 -7.484378 -1.036839e-18)
(0.7993377 -7.119073 -1.943416e-18)
(0.9924027 -6.731994 -1.781832e-18)
(1.140165 -6.298034 -2.543954e-20)
(1.253161 -5.791955 1.830788e-20)
(1.370672 -5.295341 1.863543e-20)
(1.576536 -5.028918 -1.864639e-20)
(1.956471 -5.196812 3.764078e-18)
(2.369078 -5.548758 3.203163e-18)
(2.523577 -5.405803 0)
(2.443861 -4.767562 0)
(2.332531 -4.155076 -1.378553e-20)
(2.126395 -3.484943 3.184145e-18)
(1.794686 -2.725925 1.177327e-18)
(1.34884 -1.915395 -1.565892e-18)
(0.7754293 -1.062035 3.67591e-19)
(0.05677945 -0.1466107 -1.130869e-21)
(-0.3409488 0.3815469 5.002548e-21)
(0.1479835 -0.09393612 -3.80615e-21)
(1.159668 -1.022629 0)
(2.039746 -1.668387 -7.81297e-19)
(2.347726 -1.806748 0)
(1.209293 -0.916007 -5.26413e-19)
(-0.727886 0.386656 7.062066e-22)
(-2.772459 1.588248 -2.296368e-20)
(-5.067157 2.758122 2.189518e-20)
(-7.779027 3.921697 -6.986432e-18)
(-9.41805 4.642467 -1.086247e-17)
(-5.220285 2.723749 0)
(4.73562 -1.440806 -1.778318e-21)
(6.514529 -2.274297 2.181356e-19)
(0.7438344 -0.4424053 8.520677e-19)
(-2.370259 0.3503582 0)
(-5.148406 0.8357375 -2.874151e-18)
(-7.676125 1.182732 -2.177425e-20)
(-8.874037 1.244845 3.236447e-18)
(-5.307821 0.748505 -1.489601e-18)
(-0.659581 0.1181382 1.119965e-21)
(0.8526923 -0.007673117 -2.808492e-19)
(5.611187 0.5757346 1.105591e-18)
(9.665162 1.283952 -1.816295e-20)
(11.6402 1.949409 1.768185e-20)
(12.63391 2.6009 0)
(13.15558 3.263737 -4.727443e-18)
(13.40805 3.901546 -4.741406e-18)
(13.45068 4.499362 0)
(13.35842 5.061376 -9.129251e-18)
(13.15422 5.585928 8.925505e-18)
(12.88178 6.080843 8.615957e-18)
(12.55196 6.53943 3.126897e-20)
(12.15781 6.954635 -7.764417e-18)
(11.70864 7.322208 0)
(11.21414 7.643395 0)
(10.68389 7.914477 6.093202e-18)
(10.11636 8.127638 5.497838e-18)
(9.529463 8.292884 3.521028e-20)
(8.929984 8.408703 4.099432e-18)
(8.306244 8.457503 6.886305e-18)
(7.670792 8.446805 2.734197e-18)
(7.031795 8.379664 1.968734e-18)
(6.402297 8.264826 -1.281577e-20)
(5.77965 8.09331 0)
(5.161449 7.859204 -2.221526e-19)
(4.561779 7.577183 0)
(3.978692 7.234176 1.708281e-18)
(3.419355 6.836926 -2.886866e-20)
(2.893596 6.395195 -2.50035e-21)
(2.401249 5.90694 1.340906e-20)
(1.94703 5.376985 -4.366755e-18)
(1.536304 4.813003 -2.025526e-20)
(1.169909 4.212412 2.759544e-18)
(0.8494822 3.576088 2.983488e-18)
(0.5802157 2.917897 0)
(0.3619734 2.244464 0)
(0.1989688 1.550852 3.487029e-18)
(0.08726857 0.8458776 -6.832674e-23)
(0.0305881 0.1638549 9.262575e-19)
(0.02204619 -0.4811704 1.683223e-21)
(0.06718786 -1.182053 -6.832615e-21)
(0.1638271 -1.931455 -1.685161e-18)
(0.3189037 -2.675755 0)
(0.5306882 -3.396682 2.973531e-18)
(0.7957871 -4.088958 0)
(1.112458 -4.750749 -2.439437e-18)
(1.47865 -5.381163 2.111038e-18)
(1.893265 -5.97845 1.538286e-20)
(2.352955 -6.541271 2.926571e-18)
(2.854772 -7.061116 7.030086e-21)
(3.394158 -7.535823 -1.441333e-18)
(3.968369 -7.966815 -6.281723e-19)
(4.574981 -8.348424 1.44172e-21)
(5.212248 -8.683696 1.080477e-18)
(5.869902 -8.968786 -1.954485e-18)
(6.544326 -9.198427 2.546156e-20)
(7.224539 -9.359258 6.949019e-21)
(7.916045 -9.466664 -4.559499e-18)
(8.614492 -9.52071 0)
(9.310949 -9.51298 1.243748e-17)
(10.00835 -9.454837 6.985958e-18)
(10.68648 -9.331566 1.186012e-19)
(11.34193 -9.145875 -8.724769e-18)
(11.97097 -8.901073 0)
(12.57268 -8.601251 0)
(13.1463 -8.254809 0)
(13.68313 -7.85949 0)
(14.17319 -7.416271 1.211459e-17)
(14.6136 -6.929043 1.27719e-17)
(15.00526 -6.402558 2.792934e-20)
(15.34332 -5.844542 -1.37124e-17)
(15.60807 -5.250291 -7.004188e-18)
(15.80547 -4.630639 -7.247421e-18)
(15.87657 -3.979147 5.67389e-20)
(15.7955 -3.299252 7.423502e-18)
(15.55007 -2.602827 3.832217e-18)
(15.10163 -1.901628 -2.964509e-20)
(14.32564 -1.218598 -7.259679e-21)
(12.91235 -0.621488 4.754697e-19)
(10.13153 -0.1419975 -9.206698e-19)
(4.804101 0.09625443 -2.23183e-20)
(0.2941976 0.1796187 1.615916e-20)
(0.1119231 -0.09343623 4.094686e-18)
(-5.608737 -1.496527 3.328257e-20)
(-9.362917 -2.465969 0)
(-7.769013 -2.176483 -7.942129e-18)
(-5.229777 -1.540245 -6.010106e-18)
(-2.805968 -0.8696785 -3.34733e-21)
(-0.9106894 -0.1625982 8.404194e-18)
(3.609793 1.91741 -5.185488e-18)
(7.209534 3.692715 0)
(-0.22091 -0.7188878 0)
(-8.33906 -5.754266 -1.616994e-17)
(-9.184999 -6.350877 0)
(-7.480904 -5.533061 8.716411e-20)
(-5.709079 -4.531563 -1.000545e-17)
(-3.99173 -3.398325 -7.662442e-18)
(-2.402513 -2.159723 3.897271e-20)
(-0.6973158 -0.5961837 -8.448904e-18)
(1.301702 1.465216 -4.879381e-20)
(2.29212 2.632318 5.254663e-18)
(1.907759 2.388802 2.757692e-18)
(1.483663 2.072711 2.903692e-18)
(1.252117 1.885216 3.447609e-18)
(1.1734 1.967908 0)
(1.510562 2.815645 -2.61637e-20)
(1.866317 3.636932 -7.323509e-18)
(1.342418 2.579698 0)
(-0.1671024 -0.5904328 7.129341e-18)
(-0.4540365 -0.9427666 -6.073775e-20)
(0.2634254 1.325946 3.163088e-20)
(0.3333361 1.416868 4.63737e-18)
(-0.2871599 -1.787255 4.070397e-22)
(-0.6379946 -4.76221 0)
(-0.6879275 -6.648473 2.263245e-18)
(-0.5440568 -7.585818 1.777047e-20)
(-0.2967268 -7.956151 4.439227e-21)
(0.0002032345 -7.973041 -5.770952e-21)
(0.04282921 -9.068822 -4.476459e-19)
(0.4034356 -8.941161 8.390739e-19)
(0.7815239 -8.851356 0)
(1.180692 -8.824986 1.425654e-18)
(1.577611 -8.782648 0)
(1.93303 -8.601824 4.561058e-18)
(2.214838 -8.252472 1.454333e-20)
(2.413531 -7.785219 -1.460921e-20)
(2.535742 -7.260589 -2.971381e-18)
(2.555114 -6.622192 -2.566041e-18)
(2.477076 -5.892547 0)
(2.459882 -5.259655 1.342226e-20)
(2.370275 -4.595116 -2.415757e-21)
(2.15563 -3.829582 -1.293776e-18)
(1.826117 -3.004198 -1.937149e-18)
(1.365488 -2.123496 6.350781e-19)
(0.7390623 -1.174278 -2.907996e-19)
(-0.07119651 -0.0984716 -1.077431e-21)
(-0.2822719 0.3413421 0)
(0.3398156 -0.1455594 0)
(2.10094 -1.721901 0)
(3.180791 -2.623839 -6.32415e-19)
(2.635975 -2.242658 -4.283535e-21)
(0.822123 -0.9412401 4.279747e-21)
(-1.048614 0.3355679 6.661459e-21)
(-2.832719 1.364075 -6.392709e-21)
(-4.965888 2.370658 0)
(-7.60782 3.390773 0)
(-9.132772 4.349276 1.777478e-17)
(-8.287896 4.459636 2.853089e-20)
(3.393684 -0.3773832 -2.978049e-20)
(7.124011 -2.690731 -1.754345e-19)
(2.541773 -1.236025 6.662315e-19)
(1.115825 -0.6178902 -1.541797e-20)
(-0.4528977 -0.3245422 -2.4599e-18)
(-2.20397 -0.02937737 2.088699e-18)
(-5.058274 0.7682175 1.728291e-21)
(-5.95417 0.8860644 1.177657e-18)
(1.726394 0.3494249 0)
(10.1658 0.676108 1.89725e-19)
(14.72402 1.251759 1.517656e-18)
(16.64746 1.673912 1.638383e-18)
(16.97534 2.124261 1.748427e-18)
(17.00199 2.689027 -5.62187e-20)
(16.87826 3.311735 3.757448e-18)
(16.67335 3.929944 -2.881979e-20)
(16.40673 4.546724 0)
(16.08149 5.143156 7.278057e-18)
(15.7089 5.721162 0)
(15.29542 6.274419 -5.178347e-20)
(14.82599 6.784344 5.188571e-20)
(14.30075 7.248581 6.204707e-18)
(13.72662 7.660657 -4.313648e-20)
(13.11134 8.020097 5.346416e-18)
(12.46247 8.323129 -4.90624e-18)
(11.78356 8.566709 0)
(11.08484 8.758782 2.774146e-20)
(10.3734 8.894924 -3.367252e-18)
(9.645515 8.962687 -5.468602e-18)
(8.90598 8.963518 0)
(8.166981 8.907065 -1.583058e-18)
(7.437482 8.794675 -5.206054e-21)
(6.718453 8.619245 3.597344e-19)
(6.010662 8.380399 -4.065065e-21)
(5.321235 8.083587 4.112264e-21)
(4.655403 7.72508 -1.387601e-18)
(4.015953 7.30908 1.968763e-18)
(3.413407 6.840308 0)
(2.848945 6.324064 0)
(2.327789 5.764416 -1.52507e-20)
(1.854152 5.163103 0)
(1.430966 4.521552 0)
(1.060191 3.842555 0)
(0.7467406 3.136627 -2.633089e-18)
(0.4889671 2.414927 2.101807e-20)
(0.2986687 1.66935 1.138308e-20)
(0.1638024 0.9130906 -5.584741e-21)
(0.09326064 0.1767829 -7.611773e-19)
(0.0836667 -0.5258238 3.008699e-21)
(0.1492487 -1.280168 -7.287945e-19)
(0.2676098 -2.080681 1.372648e-18)
(0.4537692 -2.874144 1.040538e-20)
(0.7042333 -3.641875 -2.409684e-18)
(1.014572 -4.380421 -3.481741e-20)
(1.383724 -5.088169 2.020076e-18)
(1.808014 -5.759249 -1.758474e-18)
(2.2878 -6.393517 0)
(2.815678 -6.990602 -4.784042e-18)
(3.390281 -7.536498 -1.170926e-20)
(4.008525 -8.034765 1.170248e-18)
(4.664623 -8.488696 5.154639e-19)
(5.356286 -8.885123 0)
(6.082009 -9.227574 0)
(6.832561 -9.520749 0)
(7.601523 -9.746661 2.005663e-20)
(8.38352 -9.902224 -1.992308e-20)
(9.17811 -9.99881 3.589226e-18)
(9.979859 -10.03462 5.62436e-21)
(10.78482 -10.00563 -5.032899e-18)
(11.58722 -9.916915 -7.892519e-20)
(12.37669 -9.763461 1.261264e-17)
(13.14507 -9.54245 6.942568e-18)
(13.88813 -9.256885 -5.624615e-20)
(14.60874 -8.913368 7.98785e-18)
(15.30218 -8.516471 6.504874e-20)
(15.96006 -8.061866 -7.33544e-20)
(16.57496 -7.555159 7.303184e-20)
(17.14338 -6.99885 8.005019e-20)
(17.66555 -6.399574 1.050476e-17)
(18.13677 -5.761911 -8.277771e-20)
(18.54552 -5.08798 0)
(18.88666 -4.380537 0)
(19.19528 -3.656473 0)
(19.4566 -2.926281 0)
(19.65207 -2.194662 2.270446e-20)
(19.76464 -1.46964 -2.263818e-20)
(19.77631 -0.7595883 1.407446e-18)
(19.60883 -0.1544969 5.411814e-21)
(18.97698 0.2661568 0)
(15.91571 0.4793565 -1.286568e-18)
(10.71751 0.6319827 2.727741e-18)
(1.874473 -0.09050393 -3.021379e-18)
(-5.752548 -1.683767 6.295548e-20)
(-4.491788 -1.275954 -9.078547e-18)
(-1.812894 -0.08477862 5.396583e-20)
(0.2334487 0.5126705 0)
(1.495902 0.8322817 8.226942e-18)
(2.320629 1.340552 -1.314825e-17)
(4.940311 2.854281 -3.943687e-18)
(7.866357 3.85919 1.766448e-20)
(-3.706116 -3.487305 -1.127849e-19)
(-9.916 -6.83834 7.772667e-20)
(-9.010502 -5.741723 0)
(-7.585607 -5.172634 1.031549e-17)
(-5.888362 -4.301527 7.938812e-18)
(-4.253304 -3.327915 1.45198e-20)
(-2.774833 -2.227373 -4.664903e-18)
(-1.249678 -0.7658447 6.7322e-18)
(0.8593839 1.444696 2.267106e-18)
(2.784347 3.46388 -3.747576e-21)
(2.981105 3.736636 -2.195883e-18)
(2.005517 2.698539 -1.792182e-20)
(1.154842 1.690623 -2.830612e-18)
(0.800744 1.451423 3.412541e-20)
(1.126672 2.363971 1.126425e-20)
(1.480356 3.006602 -5.204431e-20)
(1.798722 3.280112 0)
(0.3797897 0.3171124 0)
(-0.4058604 -0.8575145 -6.260254e-18)
(-0.5830046 -1.628615 0)
(-0.6749323 -3.544002 -6.995755e-18)
(-1.160263 -6.865101 3.365595e-18)
(-1.37032 -8.70816 -2.725871e-20)
(-1.269344 -9.162064 2.744958e-20)
(-1.004416 -9.205074 1.846798e-18)
(-0.6698502 -9.194417 -9.455711e-19)
(-0.3164985 -9.157622 -4.495647e-19)
(0.2535236 -9.843019 3.574324e-19)
(0.6344334 -9.895397 -6.789355e-19)
(1.019826 -9.890383 1.888349e-20)
(1.381537 -9.766024 -1.180306e-18)
(1.672119 -9.447235 0)
(1.903335 -8.945945 -3.710355e-18)
(2.114356 -8.347518 -2.3708e-20)
(2.318198 -7.713903 1.42971e-18)
(2.485227 -7.092369 2.456923e-18)
(2.585771 -6.508337 2.119307e-18)
(2.561221 -5.934736 1.772683e-18)
(2.523777 -5.310588 -1.292525e-20)
(2.393619 -4.651382 0)
(2.156285 -3.918194 0)
(1.802108 -3.112727 7.760591e-19)
(1.321979 -2.248789 5.275484e-19)
(0.6964992 -1.325287 2.509295e-19)
(-0.06131605 -0.2811801 1.799436e-21)
(-0.3413942 0.4550098 0)
(0.5673135 -0.1418195 -4.648834e-19)
(2.282563 -1.65884 -5.219893e-19)
(3.040191 -2.472214 5.239209e-19)
(2.065279 -1.974854 0)
(0.2641461 -0.813062 -3.300717e-19)
(-1.174662 0.1996195 0)
(-2.534986 0.9479019 -1.117979e-18)
(-4.499314 1.819337 0)
(-6.995088 2.743462 -4.617222e-18)
(-8.21303 4.013813 -1.511411e-17)
(-7.885231 4.947815 0)
(0.9736123 1.297555 0)
(6.696888 -2.46186 -1.63775e-20)
(5.632807 -2.138923 -5.265861e-19)
(5.908342 -1.742781 1.124413e-18)
(5.364056 -1.597017 3.737628e-18)
(3.91414 -1.254914 -1.641533e-18)
(0.8421567 -0.294423 2.506702e-18)
(-1.253589 0.7280474 -9.668751e-19)
(9.014888 0.9989028 0)
(15.79523 1.335871 0)
(16.76831 1.641049 -1.197408e-18)
(16.62048 1.983947 -1.356438e-18)
(16.51647 2.510579 -2.850601e-18)
(16.47662 3.142352 2.934117e-18)
(16.3734 3.794045 7.091832e-20)
(16.20639 4.432493 -4.761011e-20)
(15.97082 5.049638 0)
(15.66288 5.630613 0)
(15.29241 6.18356 5.712193e-18)
(14.87466 6.707345 -5.5207e-18)
(14.40599 7.186671 0)
(13.88341 7.619724 0)
(13.31559 7.999198 7.068783e-20)
(12.7084 8.327365 -4.457273e-18)
(12.07062 8.598488 0)
(11.40602 8.809236 -3.50438e-18)
(10.72273 8.970793 -3.084352e-18)
(10.02954 9.077382 -2.611162e-18)
(9.323594 9.114956 2.192542e-18)
(8.606086 9.08817 -2.321094e-20)
(7.890112 9.007269 1.241231e-18)
(7.184345 8.872902 0)
(6.491648 8.676149 -2.920241e-19)
(5.812481 8.417075 7.034955e-21)
(5.150277 8.103681 7.442026e-21)
(4.515937 7.728266 -1.206344e-18)
(3.904744 7.299832 0)
(3.329874 6.82089 -2.117713e-18)
(2.791213 6.297398 -2.126187e-20)
(2.29612 5.732381 2.954853e-18)
(1.845917 5.128474 1.668895e-18)
(1.444539 4.486247 -1.842659e-18)
(1.092653 3.808602 -2.00388e-18)
(0.7949012 3.105313 2.142245e-18)
(0.5477177 2.388235 -2.269364e-18)
(0.3695072 1.64692 -1.153506e-18)
(0.2366398 0.8963341 2.413831e-18)
(0.164287 0.165777 1.245067e-18)
(0.153346 -0.5374709 2.488532e-21)
(0.2282173 -1.286212 6.034995e-19)
(0.3409526 -2.078452 -8.982398e-21)
(0.5177365 -2.8626 0)
(0.7543534 -3.622716 -1.501799e-20)
(1.045858 -4.356101 -1.251014e-20)
(1.393702 -5.060487 -1.601e-18)
(1.792575 -5.73051 2.88948e-18)
(2.248411 -6.364676 -1.236437e-18)
(2.747344 -6.96541 1.943065e-18)
(3.290795 -7.517424 1.350887e-20)
(3.87992 -8.02328 0)
(4.504342 -8.488872 4.756376e-19)
(5.163961 -8.899195 -5.729625e-21)
(5.859756 -9.256879 6.238008e-19)
(6.580252 -9.568997 0)
(7.318248 -9.81693 1.763198e-18)
(8.072574 -9.99532 0)
(8.840239 -10.1179 -5.33615e-20)
(9.615073 -10.18274 3.456139e-18)
(10.39726 -10.18273 0)
(11.17641 -10.1272 -4.627387e-18)
(11.94491 -10.00882 -5.175371e-18)
(12.69476 -9.824044 -5.692133e-18)
(13.42136 -9.575235 0)
(14.12951 -9.267419 -1.334862e-17)
(14.81246 -8.907921 1.068403e-19)
(15.46272 -8.490015 0)
(16.07263 -8.02072 0)
(16.63881 -7.500811 0)
(17.16222 -6.935856 8.517591e-18)
(17.6353 -6.336065 -8.823439e-18)
(18.04938 -5.697313 0)
(18.40023 -5.021921 0)
(18.68533 -4.319811 4.668534e-18)
(18.91031 -3.592456 3.728229e-20)
(19.06852 -2.845459 0)
(19.14774 -2.08798 0)
(19.16365 -1.33487 -2.349901e-18)
(19.12501 -0.6161849 2.812231e-19)
(19.34385 -0.03919398 0)
(19.33507 0.3756597 9.693615e-19)
(17.79766 0.693029 4.13574e-20)
(9.674886 0.1511173 -6.912056e-21)
(-1.301585 -0.9057246 -4.332717e-20)
(1.67807 0.642857 7.746747e-18)
(4.669791 2.048162 5.386877e-18)
(6.404176 2.678232 7.122236e-20)
(7.024163 2.861296 4.393157e-20)
(6.823887 3.130623 5.062998e-18)
(6.696823 3.692755 3.216018e-18)
(6.38605 2.527302 0)
(-4.921945 -5.152089 5.827721e-18)
(-7.907283 -6.026136 0)
(-7.964696 -4.932873 -1.463036e-19)
(-6.742599 -4.403413 -8.389463e-18)
(-5.334979 -3.643174 8.941888e-20)
(-3.979682 -2.873921 -9.24628e-20)
(-2.81005 -2.021155 3.832306e-18)
(-1.659387 -0.8164038 -2.711382e-18)
(0.1841088 1.187107 -1.815097e-18)
(2.409728 3.237309 -1.747456e-18)
(2.984575 3.649197 -1.780578e-18)
(1.923194 2.325482 0)
(0.8213366 0.9616817 3.718575e-21)
(0.4150111 0.8568782 0)
(0.7301667 1.862723 -3.999532e-18)
(1.120834 2.371917 5.12315e-18)
(1.600583 2.45831 0)
(0.6257633 0.3640617 0)
(-0.9294154 -2.984284 9.78802e-18)
(-1.459643 -5.620073 -2.666531e-18)
(-1.416807 -7.419458 5.320383e-18)
(-1.4163 -8.860318 -2.113288e-20)
(-1.3055 -9.10348 2.154774e-20)
(-1.084313 -9.188573 0)
(-0.7901965 -9.415945 -1.513176e-18)
(-0.4633954 -9.614245 1.51662e-18)
(-0.1163469 -9.752042 3.715011e-19)
(0.1492774 -10.20525 -5.863541e-19)
(0.5489805 -10.18188 -1.669684e-20)
(0.9427605 -10.03057 1.670073e-20)
(1.304912 -9.732273 -2.807714e-20)
(1.588019 -9.286243 2.819248e-20)
(1.820384 -8.751711 1.524213e-18)
(2.031143 -8.202271 -1.937538e-20)
(2.217099 -7.657173 -1.170913e-18)
(2.36337 -7.113902 3.37462e-20)
(2.463409 -6.56515 -1.688645e-18)
(2.435796 -5.985217 -4.07688e-20)
(2.420188 -5.344956 0)
(2.300474 -4.693535 0)
(2.064971 -3.966095 -8.553917e-19)
(1.705513 -3.16954 -6.436849e-19)
(1.224977 -2.322543 -8.599221e-19)
(0.6144133 -1.440427 -2.011338e-19)
(-0.09844776 -0.4718954 0)
(-0.4373429 0.6083856 0)
(0.6195416 0.0796538 7.476936e-19)
(2.07281 -1.223496 8.522703e-19)
(2.373707 -1.910568 -7.113827e-21)
(1.266414 -1.586927 1.264787e-20)
(-0.2308096 -0.7076505 5.268767e-19)
(-1.122024 -0.01560976 -2.112487e-19)
(-2.080052 0.4360224 9.453405e-19)
(-4.001785 1.206554 2.156459e-18)
(-6.305032 1.996569 3.610701e-18)
(-7.50169 3.678144 6.532397e-18)
(-6.343856 4.973028 0)
(-0.4756841 2.769418 -3.821608e-21)
(6.521347 -1.960286 2.869684e-19)
(8.556625 -2.730765 -5.908271e-21)
(9.940266 -2.600688 4.073071e-21)
(10.24904 -2.648843 -1.425606e-18)
(9.762938 -2.329807 -1.174318e-18)
(8.276179 -1.077727 -6.205956e-20)
(8.569217 0.8339477 -6.759264e-19)
(14.95521 1.597468 -2.230691e-19)
(17.03125 1.491133 -1.765222e-21)
(16.31601 1.414578 0)
(16.41009 1.669793 -1.759842e-20)
(16.56172 2.128713 1.200926e-18)
(16.6185 2.701091 -4.849859e-18)
(16.56376 3.325256 3.84197e-20)
(16.41751 3.954404 -2.493365e-18)
(16.18467 4.574336 -7.588388e-20)
(15.88011 5.160751 -4.768754e-18)
(15.51315 5.72209 -1.243753e-20)
(15.09701 6.263457 4.555349e-18)
(14.63135 6.757932 -4.268278e-18)
(14.11076 7.21025 0)
(13.54416 7.609165 5.698079e-20)
(12.93594 7.959997 -5.730204e-20)
(12.29541 8.254946 0)
(11.62628 8.49043 2.8877e-18)
(10.93737 8.676605 6.424361e-20)
(10.23734 8.807807 2.182692e-18)
(9.524653 8.868779 -1.740321e-18)
(8.801711 8.862167 -1.349922e-18)
(8.076786 8.802918 -1.002368e-18)
(7.362729 8.688826 -5.683591e-19)
(6.662 8.510891 -1.474803e-22)
(5.973416 8.270119 1.489067e-22)
(5.301496 7.974473 0)
(4.658073 7.615118 9.794261e-19)
(4.037182 7.201956 -2.427833e-20)
(3.453602 6.736644 1.764193e-18)
(2.906752 6.225473 2.068702e-18)
(2.405939 5.67093 -2.394359e-18)
(1.949916 5.07678 -1.369714e-18)
(1.543647 4.443503 -3.187997e-21)
(1.187373 3.774384 1.64368e-18)
(0.8880964 3.078409 2.802766e-20)
(0.6371067 2.368969 1.817957e-18)
(0.4604226 1.632642 1.512321e-20)
(0.3252603 0.8860368 -1.008327e-18)
(0.2501 0.1600746 -5.071889e-19)
(0.2372475 -0.5479246 -6.16494e-23)
(0.3228782 -1.292542 4.790909e-19)
(0.4363352 -2.076646 7.358432e-21)
(0.613997 -2.8518 -8.760051e-19)
(0.8539683 -3.603149 1.636811e-18)
(1.149148 -4.326841 0)
(1.501166 -5.020133 -4.048897e-21)
(1.90422 -5.677943 -1.189382e-18)
(2.366849 -6.298955 1.041231e-18)
(2.870985 -6.886948 -1.681425e-18)
(3.424544 -7.423267 1.642118e-20)
(4.025181 -7.913003 -1.627201e-20)
(4.656402 -8.364317 -3.909577e-19)
(5.326551 -8.756937 0)
(6.037084 -9.094351 -5.196478e-19)
(6.765287 -9.389838 2.991563e-20)
(7.512451 -9.618104 -6.726068e-20)
(8.277662 -9.77473 -1.827399e-18)
(9.054459 -9.875841 -2.403948e-18)
(9.837839 -9.917915 -1.547691e-20)
(10.62794 -9.893961 3.232249e-18)
(11.41597 -9.812256 -5.432517e-20)
(12.19076 -9.668398 -4.128745e-18)
(12.94633 -9.456323 0)
(13.67966 -9.177696 4.953854e-18)
(14.3916 -8.84276 5.42236e-18)
(15.07441 -8.459866 5.606405e-18)
(15.72384 -8.017505 -5.950654e-18)
(16.3313 -7.525474 6.362487e-18)
(16.89459 -6.982732 0)
(17.41457 -6.395531 -1.394366e-17)
(17.88328 -5.778355 1.456503e-17)
(18.29212 -5.121863 -1.726924e-19)
(18.63641 -4.433961 -3.753359e-18)
(18.91918 -3.717237 -3.826061e-18)
(19.13343 -2.98804 0)
(19.26933 -2.257534 1.982821e-18)
(19.31598 -1.523159 -1.972453e-18)
(19.26237 -0.8229701 9.740303e-19)
(19.09309 -0.1865009 -2.410772e-19)
(18.91745 0.2753683 -4.500183e-19)
(18.97276 0.573532 1.294231e-20)
(19.77929 0.701499 -1.506481e-18)
(16.76855 0.2989794 -1.235346e-20)
(9.316758 0.2882801 0)
(9.117149 2.386658 0)
(10.79818 4.019332 -1.069497e-19)
(11.57991 4.52536 1.075065e-19)
(11.57161 4.514854 0)
(10.66751 4.524017 0)
(8.766229 4.340381 0)
(5.262287 1.031029 1.40421e-18)
(-4.266879 -5.822911 -9.519046e-18)
(-5.992783 -5.15062 9.193615e-18)
(-6.601321 -3.803995 -8.629615e-18)
(-5.560956 -3.312968 -2.230093e-19)
(-4.348495 -2.622096 5.498509e-18)
(-3.312076 -2.098269 4.282869e-18)
(-2.522435 -1.550962 4.253453e-20)
(-1.852618 -0.6789863 -1.277235e-20)
(-0.5192174 0.9512059 -2.871016e-20)
(1.691336 2.737643 -2.26356e-20)
(2.519063 2.969181 1.527844e-18)
(1.583518 1.508967 0)
(0.4463749 0.1646043 1.934893e-18)
(0.08337183 0.4334293 -2.598536e-18)
(0.3060801 1.332183 3.333143e-18)
(0.722577 1.596859 0)
(1.194012 1.106018 0)
(0.5933448 -0.6182497 -5.787391e-20)
(-1.281368 -5.248974 -3.73351e-18)
(-1.843892 -7.710825 2.13158e-18)
(-1.675428 -8.64557 -2.14694e-18)
(-1.464524 -8.954175 0)
(-1.366333 -9.031432 0)
(-1.22357 -9.381974 0)
(-0.965299 -9.711207 -1.211565e-18)
(-0.6347644 -9.95709 -6.400969e-19)
(-0.2495248 -10.12311 -6.08907e-19)
(0.2181686 -10.18761 2.411977e-19)
(0.573429 -10.07799 0)
(0.9200157 -9.854264 -8.399918e-19)
(1.232513 -9.52486 0)
(1.477396 -9.093836 -1.38804e-18)
(1.708108 -8.598172 0)
(1.940783 -8.084718 0)
(2.150741 -7.557057 -9.323587e-19)
(2.300067 -7.016212 -1.602807e-18)
(2.397762 -6.466488 1.410072e-18)
(2.322153 -5.896757 -1.175591e-18)
(2.295224 -5.265495 1.008756e-18)
(2.15675 -4.631246 0)
(1.907591 -3.923466 1.404164e-18)
(1.538068 -3.154531 5.278369e-19)
(1.058629 -2.3361 3.624251e-19)
(0.4474571 -1.481017 -8.377866e-21)
(-0.2665293 -0.5291084 1.753523e-21)
(-0.4222435 0.5998548 1.115455e-19)
(0.4290701 0.5417381 -5.942751e-19)
(1.703995 -0.6530745 -3.509618e-19)
(1.668758 -1.317154 -1.216682e-20)
(0.6002467 -1.261126 -3.816105e-19)
(-0.535156 -0.6701194 -2.169271e-19)
(-0.8821579 -0.296938 1.755304e-19)
(-1.528801 -0.1423597 0)
(-3.386214 0.5207754 8.871474e-21)
(-5.34505 1.080629 0)
(-6.433027 3.256648 5.689908e-18)
(-4.642099 4.848936 3.90609e-18)
(-0.7258997 3.840953 7.799934e-19)
(6.798028 -1.280066 -7.096885e-21)
(10.67776 -2.86886 3.171603e-21)
(12.54394 -3.004378 -1.417095e-18)
(13.62178 -3.215588 0)
(14.67856 -2.970006 -8.340947e-19)
(15.28111 -1.550022 -1.341049e-18)
(15.65854 0.8009432 1.010768e-18)
(17.11637 1.79822 1.687958e-19)
(16.34545 1.50701 0)
(15.93783 1.527721 4.142034e-19)
(16.19362 1.945251 0)
(16.29776 2.470474 0)
(16.32884 3.068491 2.023257e-18)
(16.26165 3.69887 -3.109626e-20)
(16.1177 4.306287 4.073929e-20)
(15.89107 4.904997 -1.978443e-18)
(15.59175 5.465983 4.004754e-18)
(15.23038 5.999555 -3.825551e-18)
(14.82269 6.512372 -3.67772e-18)
(14.37186 6.968265 1.7968e-19)
(13.86489 7.386933 -1.063231e-19)
(13.31528 7.750766 -9.230075e-20)
(12.72358 8.071748 -2.630594e-18)
(12.10197 8.33872 -2.635402e-18)
(11.4524 8.54673 -6.716712e-20)
(10.78079 8.71171 2.10863e-18)
(10.1025 8.821591 0)
(9.41312 8.861553 1.43306e-18)
(8.707992 8.840578 1.111266e-18)
(8.001742 8.769023 7.429889e-19)
(7.308617 8.644044 4.67642e-19)
(6.627888 8.457774 0)
(5.959308 8.209242 0)
(5.304009 7.910835 -5.340255e-19)
(4.679727 7.548128 0)
(4.072584 7.135902 0)
(3.504297 6.67239 1.510631e-18)
(2.97321 6.163894 -3.657275e-20)
(2.481373 5.615402 -1.08188e-20)
(2.032566 5.027107 -3.688105e-20)
(1.633931 4.399695 2.525574e-18)
(1.285904 3.736363 0)
(0.9962635 3.046111 0)
(0.7415656 2.347869 1.537178e-18)
(0.5704895 1.618247 7.617408e-19)
(0.432049 0.8755191 8.12587e-19)
(0.3533327 0.155488 -4.150009e-19)
(0.3388665 -0.5570146 0)
(0.4400271 -1.294467 -2.58052e-22)
(0.5555129 -2.070166 2.327199e-20)
(0.7232945 -2.837811 6.948915e-19)
(0.9556225 -3.579226 -1.341797e-18)
(1.244859 -4.290823 -3.704412e-20)
(1.590635 -4.972096 1.11906e-18)
(1.986466 -5.618948 3.261091e-20)
(2.441621 -6.231008 1.686989e-18)
(2.930132 -6.814301 -1.556153e-20)
(3.468601 -7.34641 -1.084762e-18)
(4.05854 -7.833533 2.736879e-20)
(4.673322 -8.286279 0)
(5.321335 -8.682547 1.49698e-20)
(6.016513 -9.02328 0)
(6.729226 -9.324795 0)
(7.453128 -9.563803 -1.1538e-18)
(8.19799 -9.730803 3.013088e-18)
(8.957172 -9.843467 6.490718e-20)
(9.719142 -9.901206 -1.209978e-19)
(10.48872 -9.894146 -2.655576e-18)
(11.25565 -9.833774 -2.971172e-18)
(12.00977 -9.712869 3.513608e-18)
(12.74352 -9.527852 -3.786997e-18)
(13.45476 -9.279317 -7.684111e-20)
(14.14938 -8.972107 0)
(14.81439 -8.621857 -4.853149e-18)
(15.44833 -8.211592 1.019818e-17)
(16.04128 -7.75527 -5.412703e-18)
(16.59102 -7.249197 0)
(17.10132 -6.698049 9.511515e-20)
(17.56115 -6.118216 -5.83635e-18)
(17.96357 -5.494801 -9.321539e-20)
(18.30508 -4.837798 1.47689e-19)
(18.58524 -4.145892 -9.762965e-20)
(18.79951 -3.437648 0)
(18.93831 -2.719114 -3.16172e-18)
(18.98971 -1.998046 1.535563e-18)
(18.95235 -1.28341 7.668088e-19)
(18.81671 -0.5984906 -1.205146e-20)
(18.66048 -0.02969032 3.646758e-19)
(18.40186 0.4319096 6.841094e-19)
(19.0859 0.5912117 0)
(19.7222 0.3769503 1.220455e-18)
(17.66342 1.289145 -1.044862e-19)
(17.02872 3.883693 3.980484e-18)
(16.35019 5.451804 0)
(15.41842 5.698531 0)
(14.59707 5.476455 0)
(13.34131 5.242815 4.046167e-20)
(10.7472 4.573327 2.060527e-18)
(5.253245 -0.1343009 -1.21573e-18)
(-2.573867 -5.851436 4.057276e-18)
(-4.38369 -4.416653 -1.567497e-17)
(-5.036721 -2.571744 7.36079e-18)
(-4.318172 -2.170264 0)
(-3.099596 -1.389187 -4.615271e-18)
(-2.283273 -1.076768 -3.555555e-18)
(-1.867347 -0.8424329 2.760026e-18)
(-1.712679 -0.3114121 -7.006371e-20)
(-1.076415 0.8075933 -3.623318e-20)
(0.8836226 2.086561 3.867046e-20)
(1.881136 2.006353 0)
(1.138232 0.4877979 -1.284565e-18)
(0.1240472 -0.5073413 5.755701e-20)
(-0.229195 0.05755765 4.22634e-18)
(-0.1779611 0.6552221 -2.885509e-18)
(0.26277 0.6247189 2.208512e-19)
(0.8394457 -0.1344711 -3.64417e-18)
(0.4358159 -2.302606 0)
(-1.340676 -6.814438 -2.936046e-18)
(-1.804208 -8.189394 1.713295e-18)
(-1.628225 -8.569929 -1.095958e-19)
(-1.39601 -8.815754 1.941933e-18)
(-1.274981 -9.136886 -8.923732e-20)
(-1.086951 -9.536428 3.051905e-20)
(-0.8105282 -9.847186 1.011898e-18)
(-0.4904315 -10.06478 -7.837236e-21)
(-0.144548 -10.17922 9.566709e-21)
(0.1746993 -10.0132 1.195463e-20)
(0.5207478 -9.858324 3.574233e-19)
(0.8408495 -9.604175 6.927667e-19)
(1.137565 -9.26935 -6.299774e-19)
(1.369948 -8.847285 1.144026e-18)
(1.584061 -8.362624 0)
(1.799943 -7.856226 8.283878e-19)
(1.990071 -7.331676 8.200611e-19)
(2.104618 -6.796304 1.319301e-18)
(2.208124 -6.253998 0)
(2.103833 -5.697359 0)
(2.083417 -5.090914 -8.310063e-19)
(1.940283 -4.480959 -1.998632e-20)
(1.675377 -3.803915 -5.567933e-19)
(1.302085 -3.069264 -4.41861e-19)
(0.8304954 -2.30713 -3.075284e-19)
(0.219816 -1.501693 1.624954e-19)
(-0.4760482 -0.5591818 -1.554485e-20)
(-0.372844 0.5049623 -8.69045e-20)
(0.1357816 1.054798 2.356511e-19)
(1.20906 0.05585561 0)
(1.13631 -0.8693516 0)
(0.2064523 -1.148917 3.2503e-19)
(-0.5953137 -0.7788725 0)
(-0.4352946 -0.6548806 -1.27857e-20)
(-0.8432893 -0.8010041 -2.224411e-20)
(-2.45862 -0.3223822 -1.379182e-18)
(-4.042758 -0.1830955 -6.306904e-20)
(-4.982011 2.643972 2.219561e-19)
(-2.876346 4.593573 -3.26929e-18)
(0.07973913 4.495715 1.48296e-19)
(7.433287 -0.4224895 -8.887475e-20)
(11.51932 -2.483227 -1.293215e-20)
(13.03604 -2.847805 6.097308e-19)
(14.39687 -3.227225 -2.314703e-20)
(16.1188 -3.109477 2.877431e-18)
(17.5119 -1.786345 2.653702e-20)
(17.73718 0.5001003 -2.419591e-20)
(16.91155 1.585046 -3.079126e-19)
(15.91428 1.358795 -2.545931e-21)
(16.01874 1.432447 -3.447482e-19)
(16.21397 1.773916 -2.342524e-20)
(16.33561 2.225216 -7.433008e-19)
(16.37001 2.764655 1.57297e-18)
(16.30516 3.369215 -1.59604e-18)
(16.15953 3.966936 3.140791e-18)
(15.93147 4.566858 1.73112e-18)
(15.63517 5.136106 0)
(15.27188 5.689314 0)
(14.86392 6.224128 2.982302e-18)
(14.41311 6.699539 2.842459e-18)
(13.90557 7.136898 0)
(13.35788 7.512831 -7.388193e-20)
(12.76592 7.847736 2.38587e-18)
(12.14141 8.13321 2.09942e-18)
(11.49245 8.352687 1.802495e-18)
(10.82636 8.52297 -4.628428e-20)
(10.15005 8.644473 -1.29539e-18)
(9.458252 8.69956 3.054927e-20)
(8.757686 8.68408 -3.082679e-20)
(8.059612 8.615828 -6.250603e-19)
(7.369604 8.499642 3.279638e-19)
(6.685585 8.327872 0)
(6.025172 8.083257 0)
(5.372781 7.794422 8.851435e-19)
(4.75758 7.437246 -7.762141e-21)
(4.154982 7.033409 -7.417636e-21)
(3.602102 6.574056 -1.164823e-18)
(3.079923 6.072321 -2.821645e-18)
(2.582479 5.540432 1.541323e-18)
(2.137034 4.964388 -1.807006e-18)
(1.743124 4.347796 -9.876855e-19)
(1.402994 3.693231 -3.347518e-20)
(1.121001 3.006989 0)
(0.8610703 2.322573 -1.200024e-18)
(0.7044458 1.603468 -4.026775e-20)
(0.5607507 0.8641746 -6.754547e-19)
(0.4790964 0.1508042 3.554953e-19)
(0.464714 -0.5647577 -4.956839e-23)
(0.5811128 -1.292111 -3.410072e-19)
(0.6897273 -2.063003 2.889546e-20)
(0.8511807 -2.820626 -6.062414e-19)
(1.073883 -3.544001 1.10068e-18)
(1.356657 -4.238111 -1.049019e-18)
(1.698095 -4.905389 2.895462e-21)
(2.090279 -5.539753 8.399375e-19)
(2.550022 -6.139673 -1.343977e-18)
(3.02951 -6.716915 1.118955e-18)
(3.557001 -7.243262 8.130966e-19)
(4.147853 -7.721728 8.557037e-21)
(4.770741 -8.162069 8.964049e-21)
(5.411448 -8.551251 -6.93665e-21)
(6.090135 -8.893144 -2.513516e-19)
(6.803157 -9.186196 2.310908e-20)
(7.526397 -9.414833 8.468238e-19)
(8.263523 -9.575483 -2.430529e-18)
(9.015048 -9.684334 1.511355e-18)
(9.782382 -9.724176 -5.75774e-20)
(10.5494 -9.706977 -2.143396e-18)
(11.3089 -9.642329 4.894389e-18)
(12.06341 -9.507601 8.920516e-20)
(12.79426 -9.311711 2.937037e-18)
(13.50587 -9.046483 -3.406175e-18)
(14.20232 -8.722017 1.054802e-19)
(14.86592 -8.358399 -3.840705e-18)
(15.49999 -7.929264 -3.914938e-18)
(16.09153 -7.457023 1.345897e-19)
(16.64193 -6.927861 -4.490624e-18)
(17.15205 -6.355222 4.631194e-18)
(17.61083 -5.756347 0)
(18.01065 -5.115875 0)
(18.34718 -4.439457 2.515991e-18)
(18.62124 -3.744216 2.519243e-18)
(18.83334 -3.037238 0)
(18.97228 -2.326007 1.354185e-18)
(19.0266 -1.614946 1.241583e-18)
(18.98745 -0.9404298 -6.424347e-19)
(18.84942 -0.3170771 1.487035e-19)
(18.68407 0.1617533 2.994413e-19)
(18.45431 0.5468623 -5.714985e-19)
(18.44151 0.682219 0)