/*--------------------------------*- C++ -*----------------------------------*\
| =========                 |                                                 |
| \\      /  F ield         | OpenFOAM: The Open Source CFD Toolbox           |
|  \\    /   O peration     | Version:  2406                                  |
|   \\  /    A nd           | Website:  www.openfoam.com                      |
|    \\/     M anipulation  |                                                 |
\*---------------------------------------------------------------------------*/
FoamFile
{
    version     2.0;
    format      ascii;
    arch        "LSB;label=32;scalar=64";
    class       surfaceScalarField;
    location    "1.72";
    object      phi;
}
// * * * * * * * * * * * * * * * * * * * * * * * * * * * * * * * * * * * * * //

dimensions      [0 3 -1 0 0 0 0];

oriented        oriented;

internalField   nonuniform List<scalar> 
326221
(
-0.001783213
-0.003238998
0.005022211
-0.0008836963
-0.0008995165
0.0006232579
-0.001506954
-5.050243e-05
0.0006737603
-0.0007187176
0.0006682152
-0.000747726
2.900837e-05
-0.0004268282
-0.0003208978
9.524274e-05
-0.000522071
0.0005602276
-0.0004649849
0.0009155732
-0.0003553456
0.00129224
-0.0003766667
0.001609432
-0.0003171917
0.001529722
7.970923e-05
0.001132035
0.0003976872
0.0009415422
0.0001904929
0.001021866
-8.032344e-05
0.0009216093
0.0001002564
0.0002222544
0.0006993549
-0.0003035161
0.0005257705
-0.0003217613
1.824514e-05
-0.0004153341
9.357287e-05
-0.00046326
4.79259e-05
-0.0003098545
-0.0001534056
-0.0001745835
-0.000135271
5.169483e-05
-0.0002262783
0.0002698122
-0.0002181173
0.0005316822
-0.00026187
0.0008796749
-0.0003479927
0.001331173
-0.0004514986
0.001811288
-0.000480115
0.002339019
-0.0005277309
0.002882356
-0.0005433368
0.00336889
-0.0004865334
0.003298107
7.078265e-05
0.002107723
0.001190384
0.0005506637
0.001557059
-0.0004073732
0.000958037
-0.0004957089
8.83357e-05
9.980652e-05
-0.0005955155
2.758344e-05
7.222308e-05
-0.0004170209
0.0004446043
-0.0004340619
1.704099e-05
0.0001539189
-0.0005879808
0.000992595
-0.0008386761
0.001346341
-0.0003537459
0.0007522201
0.0005941209
-0.0001945987
0.0009468188
-0.0002789825
8.438383e-05
0.0001201973
-0.0003991799
-0.0006874461
0.0008076435
-0.000488975
-0.0001984711
-6.475368e-05
-0.0004242214
0.0001556205
-0.0002203742
0.0006027477
-0.0004471272
0.00101527
-0.0004125218
0.001389666
-0.0003743965
0.001712273
-0.0003226065
0.001933607
-0.0002213341
0.001843314
9.029301e-05
0.001237339
0.0006059751
0.0005655298
0.0006718087
0.0003277807
0.0002377491
0.0003017443
2.603644e-05
0.0003407934
-3.904909e-05
0.0006391103
-0.0002983169
0.0008992576
-0.0002601473
0.0007182462
0.0001810115
0.0004314051
0.0002868411
0.0003362244
9.518066e-05
0.0004327792
-9.655473e-05
0.0007330808
-0.0003003016
0.001143253
-0.0004101718
0.001536584
-0.0003933316
0.001861949
-0.0003253645
0.002132822
-0.0002708731
0.002360096
-0.0002272744
0.002569027
-0.0002089313
0.002767943
-0.0001989158
0.002959807
-0.000191864
0.003166544
-0.000206737
0.003372442
-0.0002058978
0.003566441
-0.0001939987
0.00376764
-0.0002011993
0.00388499
-0.0001173505
0.004068972
-0.000183982
0.004253951
-0.0001849784
0.004434046
-0.0001800954
0.004606196
-0.0001721495
0.004775197
-0.0001690015
0.004934567
-0.0001593695
0.005074414
-0.0001398478
0.005199323
-0.0001249083
0.005304465
-0.0001051421
0.005388693
-8.422813e-05
0.005450008
-6.131512e-05
0.005490126
-4.011828e-05
0.005509521
-1.939461e-05
0.005502885
6.635769e-06
0.00546176
4.112504e-05
0.005379237
8.252276e-05
0.005250274
0.0001289631
0.00506411
0.0001861646
0.004810933
0.000253177
0.004471854
0.0003390784
0.004012466
0.0004593882
0.003367808
0.0006446585
0.00242007
0.0009477375
0.001111383
0.001308687
-7.948643e-05
0.00119087
-0.0005251876
0.0004457012
-0.001142582
0.0006173948
-0.003026942
0.00188436
-0.00396163
0.000934688
-0.002961902
-0.0009997278
-0.001566445
-0.001395458
-0.0003777704
-0.001188674
0.001278313
-0.001656083
0.002330348
-0.001052035
-0.0002735806
0.002603928
-0.003209279
0.002935698
-0.003890718
0.0006814396
-0.00285688
-0.001033838
-0.001780284
-0.001076596
-0.001055631
-0.0007246523
-0.0005835136
-0.0004721178
-0.0001432886
-0.000440225
0.0003158909
-0.0004591794
0.0006818822
-0.0003659914
0.000922828
-0.0002409458
0.001178101
-0.0002552728
0.001280228
-0.0001021271
0.0006648106
0.0006154173
0.0002164765
0.000448334
0.0005988976
-0.000382421
0.0008795268
-0.0002806292
-0.0003383344
0.001217861
-0.00186954
0.001531206
-0.002277491
0.0004079507
-0.001773988
-0.0005035028
-0.0009562734
-0.0008177149
-0.0001220609
-0.0008342125
0.001015127
-0.001137188
0.00200632
-0.000991193
0.002552443
-0.0005461232
0.002289235
0.0002632082
0.0008365667
0.001452668
-0.0006149543
0.001451521
-0.0003437733
-0.000271181
0.000819753
-0.001163526
-0.001407117
0.00222687
-0.0006471798
-0.0007599376
0.0007795295
-0.001426709
0.001543361
-0.000763832
0.001669912
-0.000126551
0.001611631
5.828141e-05
0.001805805
-0.0001941743
0.002348957
-0.0005431512
0.002896128
-0.0005471712
0.00366785
-0.0007717225
0.004277627
-0.0006097766
0.004792435
-0.0005148078
0.005185342
-0.0003929075
0.005589646
-0.0004043038
0.005758068
-0.0001684215
0.005181233
0.0005768347
0.003516744
0.001664489
0.001521705
0.001995039
0.0007095372
0.0008121678
0.0008981347
-0.0001885975
0.0009421695
-4.403488e-05
0.0008955685
4.660105e-05
0.000727499
0.0001680695
-2.244641e-05
0.0007499454
-0.0008973548
0.0008749084
-0.001668907
0.0007715519
-0.002029079
0.0003601723
-0.001899657
-0.0001294215
-0.001560466
-0.0003391913
-0.0009803095
-0.0005801566
-0.0002572236
-0.0007230859
-0.0005014484
0.0002442248
-0.001865845
0.001364397
-0.002692181
0.0008263353
-0.001994322
-0.000697859
-0.0007752605
-0.001219061
-0.0002308624
-0.0005443981
-9.930046e-05
-0.0001315619
-2.093552e-05
-7.836494e-05
-0.0001137062
9.277068e-05
-0.0003962622
0.000282556
-0.0003979246
1.662333e-06
0.0003358798
-0.0007338044
0.0006861428
-0.000350263
0.0002826373
0.0004035055
-0.0003854877
0.000668125
-0.001157094
0.0007716059
-0.000809632
-0.0003474616
0.001983165
-0.002792797
0.002848999
-0.000865834
-0.006979016
0.009828015
-0.007297879
0.000318863
-0.006271714
-0.001026165
-0.005882755
-0.0003889587
-0.005485232
-0.0003975235
-0.005188403
-0.0002968284
-0.004917296
-0.000271107
-0.004681724
-0.0002355727
-0.004370393
-0.0003113307
-0.004208037
-0.000162356
-0.004068538
-0.0001394992
-0.003940173
-0.0001283647
-0.003825584
-0.0001145896
-0.003715392
-0.0001101918
-0.00361069
-0.0001047013
-0.003511056
-9.963456e-05
-0.003421792
-8.926382e-05
-0.003339668
-8.212418e-05
-0.003260975
-7.869255e-05
-0.003183603
-7.737269e-05
-0.003111487
-7.211512e-05
-0.003042296
-6.919121e-05
-0.002977806
-6.448989e-05
-0.002919564
-5.824266e-05
-0.00286035
-5.921328e-05
-0.002801644
-5.870661e-05
-0.002742591
-5.905263e-05
-0.002687056
-5.553492e-05
-0.002637066
-4.999003e-05
-0.002591225
-4.584093e-05
-0.002543448
-4.777718e-05
-0.002496527
-4.692122e-05
-0.002447411
-4.911591e-05
-0.002403668
-4.374321e-05
-0.002362443
-4.122482e-05
-0.002319717
-4.272607e-05
-0.002276758
-4.295858e-05
-0.002233075
-4.368336e-05
-0.002193576
-3.949913e-05
-0.002157105
-3.647106e-05
-0.002189135
3.203035e-05
-0.002166742
-2.239321e-05
-0.002138674
-2.80675e-05
-0.00211046
-2.821454e-05
-0.002085355
-2.510496e-05
-0.002059347
-2.600764e-05
-0.002035708
-2.363945e-05
-0.002013473
-2.223438e-05
-0.001991681
-2.179265e-05
-0.001965885
-2.579539e-05
-0.001938807
-2.70783e-05
-0.001914106
-2.470101e-05
-0.00189038
-2.372649e-05
-0.001867761
-2.261881e-05
-0.00183967
-2.809102e-05
-0.001807291
-3.237887e-05
-0.001775337
-3.195397e-05
-0.001742402
-3.29351e-05
-0.001703767
-3.863469e-05
-0.001663524
-4.02433e-05
-0.001617029
-4.649524e-05
-0.001563864
-5.316499e-05
-0.001501609
-6.225506e-05
-0.001424963
-7.664536e-05
-0.001318342
-0.0001066211
-0.001180206
-0.0001381365
-0.0009921009
-0.0001881047
-0.0006876616
-0.0003044393
-0.0002225449
-0.0004651167
0.0002780054
-0.0005005503
-0.0001936075
0.0004716129
-0.001779039
0.001585432
-0.0005912129
-0.001187827
0.0006273105
-0.001218523
0.0009594632
-0.0003321528
0.0009945236
-3.506037e-05
0.001015497
-2.097378e-05
0.001049691
-3.419385e-05
0.001075841
-2.614982e-05
0.001089588
-1.374648e-05
0.001105661
-1.607303e-05
0.001134198
-2.85372e-05
0.001159865
-2.566693e-05
0.001180444
-2.057882e-05
0.001194805
-1.436195e-05
0.001208514
-1.370881e-05
0.001222125
-1.361064e-05
0.001238449
-1.632443e-05
0.001253513
-1.506319e-05
0.001264422
-1.090909e-05
0.001275489
-1.106788e-05
0.001289223
-1.373334e-05
0.001300908
-1.168489e-05
0.001311434
-1.052591e-05
0.001324969
-1.353551e-05
0.001335836
-1.08666e-05
0.001352262
-1.642624e-05
0.001371187
-1.892513e-05
0.00138465
-1.34628e-05
0.001394673
-1.002329e-05
0.001406226
-1.155315e-05
0.001420516
-1.428936e-05
0.001428769
-8.253664e-06
0.001398614
3.01557e-05
0.001419327
-2.071294e-05
0.001444817
-2.549046e-05
0.001469903
-2.508543e-05
0.001494645
-2.474249e-05
0.001521379
-2.67342e-05
0.001545903
-2.452428e-05
0.001567385
-2.14813e-05
0.00159085
-2.346549e-05
0.001617231
-2.638053e-05
0.001646047
-2.881647e-05
0.001670146
-2.409907e-05
0.001692235
-2.208837e-05
0.001716009
-2.37741e-05
0.001742334
-2.632546e-05
0.001769126
-2.679164e-05
0.001799048
-2.992192e-05
0.001829737
-3.068892e-05
0.001860048
-3.031167e-05
0.001890951
-3.090288e-05
0.00191884
-2.788857e-05
0.001953292
-3.44517e-05
0.001988872
-3.557997e-05
0.002025028
-3.6156e-05
0.002063988
-3.896035e-05
0.002103868
-3.98804e-05
0.002148092
-4.422389e-05
0.0021964
-4.83081e-05
0.002244252
-4.785193e-05
0.002296173
-5.19209e-05
0.002355656
-5.948256e-05
0.002430266
-7.460989e-05
0.002590575
-0.0001603098
0.002693575
-0.0001029998
0.002809001
-0.0001154256
0.002936096
-0.0001270954
0.003093818
-0.0001577221
0.003256558
-0.0001627401
0.003580776
-0.0003242172
0.0003417774
-0.0006849263
0.00189061
-0.00239351
0.0004072387
-0.002310688
0.0008589937
-0.0007839077
0.001107268
-0.0002833349
0.001308107
-0.0002218126
0.001496577
-0.0002226637
0.001655215
-0.0001847875
0.001784778
-0.0001433102
0.00189968
-0.0001309747
0.002014056
-0.0001429131
0.002118545
-0.0001301558
0.002214801
-0.000116835
0.00230112
-0.0001006807
0.002382449
-9.503835e-05
0.002457818
-8.897891e-05
0.00253144
-8.9947e-05
0.002600684
-8.43075e-05
0.002664563
-7.478749e-05
0.002725026
-7.153126e-05
0.002784961
-7.366826e-05
0.00284131
-6.803365e-05
0.002894381
-6.359661e-05
0.002948026
-6.718078e-05
0.002997284
-6.012439e-05
0.003048965
-6.810747e-05
0.003100977
-7.09375e-05
0.003150064
-6.254952e-05
0.003195202
-5.516159e-05
0.003241205
-5.755621e-05
0.003287556
-6.063975e-05
0.003330942
-5.163954e-05
0.003300938
6.01589e-05
0.003354299
-7.407347e-05
0.003410369
-8.156075e-05
0.003466318
-8.10342e-05
0.003521978
-8.040242e-05
0.003578345
-8.310081e-05
0.003633808
-7.998767e-05
0.003686136
-7.380955e-05
0.003740176
-7.750573e-05
0.003794334
-8.053854e-05
0.003851488
-8.597053e-05
0.003904336
-7.694625e-05
0.003956787
-7.454014e-05
0.004008942
-7.592824e-05
0.004063106
-8.049025e-05
0.004116762
-8.044722e-05
0.004172809
-8.596902e-05
0.004229602
-8.748214e-05
0.004285996
-8.670571e-05
0.004343742
-8.86488e-05
0.004398353
-8.249928e-05
0.004458451
-9.454999e-05
0.004517848
-9.497698e-05
0.004579356
-9.766365e-05
0.004641449
-0.0001010533
0.004705602
-0.0001040339
0.004771737
-0.0001103582
0.004841967
-0.0001185386
0.0049114
-0.0001172843
0.004984808
-0.0001253294
0.005063483
-0.0001381574
0.00515405
-0.0001651769
0.005385615
-0.0003918752
0.005508126
-0.000225511
0.005646722
-0.000254021
0.005792452
-0.0002728258
0.005982764
-0.0003480339
0.006124848
-0.0003048244
0.006563335
-0.0007627034
0.005550657
0.001354455
-0.01110155
0.01029259
0.00112782
-0.00994867
-0.002179044
-0.009569809
-0.0007678203
-0.00914114
-0.000826192
-0.008824334
-0.0006136348
-0.008529429
-0.0005660121
-0.008277136
-0.0004878657
-0.007875157
-0.0007133094
-0.007691443
-0.0003460703
-0.007528292
-0.0003026498
-0.007374552
-0.0002821052
-0.007233641
-0.0002555003
-0.007096088
-0.0002477456
-0.006965294
-0.0002354951
-0.00683772
-0.0002272088
-0.006720346
-0.0002066376
-0.006606782
-0.0001956883
-0.006498366
-0.0001871078
-0.006389852
-0.0001858867
-0.006287216
-0.0001747518
-0.006185883
-0.000170524
-0.006089014
-0.0001613583
-0.005996384
-0.0001508736
-0.005903437
-0.0001521601
-0.005811847
-0.0001502964
-0.005719699
-0.0001512008
-0.005631068
-0.0001441661
-0.005544711
-0.0001363468
-0.005462167
-0.0001283848
-0.005376183
-0.0001337613
-0.005292558
-0.0001305459
-0.005205453
-0.0001362208
-0.005122851
-0.0001263458
-0.005039974
-0.0001241014
-0.004956141
-0.0001265589
-0.004871089
-0.0001280109
-0.004785135
-0.0001296374
-0.004701271
-0.0001233631
-0.004617739
-0.0001200034
-0.004645435
5.972619e-05
-0.004575023
-9.280461e-05
-0.004503669
-9.9422e-05
-0.004430218
-0.0001016649
-0.004359346
-9.59772e-05
-0.004285396
-9.995774e-05
-0.004212873
-9.616214e-05
-0.004138763
-9.634471e-05
-0.004064132
-9.642325e-05
-0.003984781
-0.000105147
-0.003903716
-0.0001081429
-0.003822461
-0.000105956
-0.003739311
-0.0001068765
-0.003654603
-0.0001073269
-0.003562769
-0.0001199249
-0.003465944
-0.0001292041
-0.003365809
-0.0001320886
-0.003262001
-0.0001367436
-0.003149228
-0.0001514071
-0.003031887
-0.0001575846
-0.002904142
-0.0001742403
-0.002766595
-0.0001907116
-0.002615504
-0.0002133464
-0.002445959
-0.00024619
-0.002244028
-0.0003085521
-0.002011085
-0.0003710794
-0.001734697
-0.0004644927
-0.001369519
-0.0006696176
-0.0008917074
-0.0009429283
-0.0005456782
-0.0008465795
-0.0008153162
0.0007412508
0.002660726
-0.001097237
0.001549033
-0.001211734
0.0001782284
-0.002702174
0.001133621
-0.001719225
0.001692001
-0.0006849312
0.001903424
-0.0001531412
0.00223019
-0.0005209405
0.002867908
-0.00118087
0.00351852
-0.001197782
0.004447814
-0.001701017
0.005262538
-0.001424501
0.005999045
-0.001251315
0.006617302
-0.001011164
0.007198011
-0.0009850128
0.007689378
-0.000659789
0.008127758
0.0001384555
0.007786324
0.002005922
0.005888944
0.003892419
0.003245567
0.003455545
0.001503317
0.001553653
0.0008328485
0.0006264334
0.001036148
-0.0001566989
0.001551698
-0.0003474798
0.000677913
0.00162373
-0.0009713188
0.00252414
-0.002200388
0.002000621
-0.00296024
0.001120024
-0.002968843
-0.0001208177
-0.002565814
-0.0007422206
-0.002113163
-0.001032807
-0.001925311
-0.0009109383
-0.002653622
0.000972536
-0.003709719
0.002420493
-0.003570008
0.0006866246
-0.002286373
-0.001981494
-0.0009617213
-0.002543713
-0.0003667252
-0.001139394
-0.0002705553
-0.0002277318
-0.0002994709
-4.944938e-05
-0.0004671281
0.0002604278
-0.0006280483
0.0004434762
-0.0003478818
-0.0002785041
0.0006042212
-0.001685907
0.001173838
-0.0009198793
0.0006475984
0.0009297446
-0.0004572281
0.001772952
-0.0002165232
0.000530901
0.001067829
-0.001631814
0.003010075
-0.004735043
0.0008574198
0.001286822
0.02097803
-0.0008313462
0.0008335274
-0.0002006524
-0.0003161542
-0.0009394133
0.000107148
-0.0006436764
0.0006397698
-0.000979749
0.00114791
-0.0009206617
0.001656705
-0.0008831919
0.002123802
-0.0007897036
0.002532173
-0.0006297044
0.002891802
-0.0002693362
0.002803716
0.0006940607
0.001972978
0.001502546
0.0009298865
0.001280841
0.0003819317
0.0005739912
0.0003280292
1.485344e-05
0.0006600906
-0.0006303783
0.001255446
-0.0008555027
0.00128567
0.0001507873
0.0007685626
0.0008039486
0.0004651493
0.0003985939
0.0005807193
-0.0002121246
0.0009856615
-0.0007052439
0.001530892
-0.0009554021
0.002076152
-0.0009385915
0.002556227
-0.0008054396
0.002976048
-0.0006906946
0.003341751
-0.000592977
0.003677103
-0.0005442835
0.003992722
-0.0005145343
0.004293756
-0.0004928985
0.004605247
-0.0005182274
0.004915439
-0.0005160897
0.005214158
-0.0004927177
0.005516538
-0.0005035799
0.005709681
-0.0003104933
0.006006971
-0.0004812719
0.006300487
-0.0004784947
0.006586903
-0.0004665113
0.006865378
-0.000450624
0.007141117
-0.0004447407
0.007408586
-0.0004268392
0.007657889
-0.0003891505
0.007892531
-0.0003595502
0.008106589
-0.0003191997
0.008297918
-0.0002755579
0.008463507
-0.0002269034
0.008604243
-0.0001808548
0.008720039
-0.0001351904
0.008812714
-8.603968e-05
0.008883825
-2.998589e-05
0.008930306
3.60421e-05
0.008949984
0.0001092847
0.008935738
0.0002004111
0.008880195
0.0003087201
0.008766613
0.0004526607
0.008562604
0.0006633967
0.008199988
0.001007275
0.007511959
0.001635767
0.006201488
0.002619157
0.004008949
0.003383409
0.0008937082
0.003560942
-0.001950258
0.003461361
-0.003327601
0.003261702
-0.002707211
0.0003142983
-0.001071836
-0.002635103
-3.588765e-05
-0.002431406
0.0007612817
-0.001985844
0.002153052
-0.003047854
0.002560473
-0.001459456
-0.001418865
0.006583267
-0.004375974
0.005892807
-0.004210007
0.0005154725
-0.002889888
-0.002353957
-0.001622311
-0.002344174
-0.0008204209
-0.001526542
-0.0003054744
-0.0009870643
0.0001882494
-0.0009339489
0.0007811331
-0.001052063
0.001365244
-0.0009501019
0.001785196
-0.0006608979
0.002043485
-0.0005135622
0.002260713
-0.0003193551
0.001891058
0.0009850723
0.001420684
0.000918708
0.001429727
-0.0003914633
0.0004624936
0.0006866038
-0.001988736
0.003669091
-0.003333591
0.00287606
-0.003010256
8.461566e-05
-0.002175521
-0.001338237
-0.001118787
-0.001874449
-3.373915e-05
-0.001919261
0.001326088
-0.002497015
0.002499253
-0.002164358
0.003163417
-0.001210287
0.003283432
0.0001431927
0.00216289
0.002573211
-7.818584e-05
0.003692597
-0.0004591727
0.0001098059
0.0007569108
-0.00237961
0.004532814
-0.001024398
0.01159727
-0.001581068
-0.0003428469
-0.0003392413
-0.00274878
-0.0008878101
0.001222329
-0.001302925
0.00108333
-0.001119629
-0.0001542883
-0.000643545
-0.0007969814
6.553671e-05
-0.001231153
0.0007155708
-0.001115019
0.001206612
-0.0008463871
0.001672614
-0.000842668
0.002256946
-0.0009015237
0.0027274
-0.0003907455
0.002726595
0.0003984927
0.002466501
0.0004505865
0.002198423
0.0001877552
0.001911317
0.0003873621
0.0009956116
0.00161506
-0.0002730845
0.001794467
-0.0008991358
0.0006442963
-0.0008962428
9.067988e-05
-0.0006717404
-0.0001765765
-0.0003873025
-0.0004378435
-0.0001948714
-0.0003277021
0.0001186038
-0.0005397535
0.0004268918
-0.0005264054
0.0007954085
-0.0006303866
0.00127004
-0.0008226248
0.00185907
-0.001040528
0.002485108
-0.001106153
0.003173364
-0.001215987
0.003876204
-0.001246177
0.004506038
-0.001116367
0.00505396
-0.0004771401
0.004688526
0.001555818
0.002395074
0.003850511
-5.939396e-05
0.003412505
-0.0006267181
0.0006556598
-5.672359e-05
-0.00116551
-0.0002160033
0.0002315027
-0.0005955929
0.000824194
-0.0002855403
-0.0002930117
0.000493084
-0.001366605
0.00148824
-0.001833832
0.002078886
-0.0009443924
0.001821298
0.0008517092
0.0009867184
0.001781398
0.0004454662
0.000625636
0.0003476109
-0.0003013246
0.001988782
0.0003631104
-0.007454335
0.01868849
-0.001992738
0.002013001
-0.001412108
-0.00332941
-0.001640251
0.001450472
-0.001706043
0.001149122
-0.001429587
-0.0004307441
-0.0008318952
-0.001394673
2.425077e-05
-0.002087299
0.0008094355
-0.001900204
0.001383815
-0.001420766
0.001911188
-0.001370042
0.002534937
-0.001525273
0.003202468
-0.001058276
0.003569832
3.112891e-05
0.00357291
0.0004475078
0.003298068
0.0004625977
0.002842362
0.0008430681
0.001797481
0.002659941
5.655702e-06
0.003586292
-0.001150438
0.00180039
-0.001038662
-2.109632e-05
-0.0006898804
-0.0005253578
-0.0004181592
-0.0007095647
-0.0002620701
-0.0004837912
6.737242e-05
-0.000869196
0.0004467573
-0.0009057902
0.0009025392
-0.001086169
0.001478081
-0.001398167
0.002178687
-0.001741134
0.002924243
-0.00185171
0.003741278
-0.002033021
0.004599549
-0.002104448
0.005333207
-0.001850025
0.005959447
-0.00110338
0.006301539
0.001213727
0.004648872
0.005503178
0.001584697
0.006476679
-0.000214673
0.00245503
-0.0003672462
-0.001012937
-0.0003989578
0.0002632144
-0.0005562088
0.0009814449
-0.0001087448
-0.0007404757
0.0008422076
-0.002317557
0.002048166
-0.00303979
0.002698727
-0.001594953
0.002550259
0.001000177
0.001851902
0.002479755
0.001023643
0.001453894
0.0004395291
0.0002827898
-0.00108754
0.003515851
-0.001163696
-0.0001244962
-0.0005603947
-0.001542715
1.015119e-06
-0.001205086
0.0006180341
-0.001596768
0.001224034
-0.001526661
0.001860701
-0.001519859
0.002468853
-0.001397855
0.002967698
-0.00112855
0.003400921
-0.0007025589
0.003734896
0.0003600854
0.003402837
0.001834605
0.002125514
0.002558165
0.0008407862
0.001858719
0.0003634814
0.0004921582
0.0006189247
-0.0008858217
0.00139043
-0.001627008
0.001637965
-9.674769e-05
0.00105861
0.001383303
0.0006127077
0.0008444967
0.000719869
-0.000319286
0.001198423
-0.001183798
0.001850085
-0.001607064
0.00250919
-0.001597696
0.003090971
-0.001387221
0.00359876
-0.001198483
0.004040192
-0.00103441
0.004445115
-0.0009492057
0.00482628
-0.0008957001
0.005188874
-0.0008554916
0.005564528
-0.0008938824
0.005939197
-0.0008907586
0.006299922
-0.0008534424
0.006668551
-0.0008722089
0.006902224
-0.000544166
0.007261998
-0.0008410467
0.007616634
-0.0008331302
0.007962183
-0.00081206
0.008298376
-0.0007868177
0.008631884
-0.0007782484
0.008956405
-0.0007513602
0.009260134
-0.0006928791
0.009547735
-0.0006471518
0.009811555
-0.000583019
0.0100495
-0.0005135064
0.01025769
-0.0004350868
0.01043721
-0.0003603746
0.01058826
-0.000286244
0.01071044
-0.000208216
0.01080289
-0.0001224431
0.01086581
-2.687261e-05
0.01090336
7.173206e-05
0.01091343
0.0001903416
0.01089841
0.0003237425
0.01085655
0.0004945189
0.01078462
0.0007353267
0.01067843
0.001113466
0.01050713
0.001807065
0.01007375
0.00305254
0.008756741
0.004700415
0.005324102
0.006993582
0.0003827175
0.008402745
-0.001159802
0.004804222
0.0006805377
-0.001526041
0.002249062
-0.004203627
0.003217297
-0.003399641
0.003220596
-0.001989143
0.003308262
-0.003135519
0.002079016
-0.0002302106
-0.002346984
0.01100927
-0.004809332
0.008355155
-0.004402046
0.0001081858
-0.002681117
-0.004074886
-0.00107484
-0.003950451
-0.0001375601
-0.002463822
0.0004283336
-0.001552958
0.0008643119
-0.001369927
0.001376804
-0.001564555
0.00189695
-0.001470248
0.002310608
-0.001074556
0.002555853
-0.000758807
0.002830916
-0.0005944174
0.002674742
0.001141246
0.002382145
0.001211305
0.001679068
0.0003116143
-0.0008436616
0.003209333
-0.003676175
0.006501604
-0.004214797
0.003414682
-0.003562022
-0.0005681596
-0.00256081
-0.002339449
-0.001232299
-0.00320296
0.0001304114
-0.003281971
0.00184101
-0.004207613
0.003251164
-0.003574513
0.003977603
-0.001936726
0.004105717
1.507923e-05
0.003239519
0.003439409
0.0009599358
0.00597218
-6.56098e-05
0.001135351
0.0004552308
-0.00290045
-0.002138327
0.007126372
-0.001907898
-0.001442163
-0.0005606668
-0.004049405
0.0007465909
-0.003026482
0.001606056
-0.001544397
0.001859513
-0.0004065976
0.002183524
-0.0008449515
0.00293321
-0.001930556
0.003733199
-0.001997772
0.004895838
-0.002863656
0.005929004
-0.002457667
0.006862918
-0.002185228
0.007611951
-0.001760197
0.008363541
-0.001736603
0.008877875
-0.001174123
0.009302159
-0.0002858291
0.009908305
0.001399777
0.009465376
0.004335348
0.007014932
0.005905989
0.003748677
0.004819907
0.001544167
0.002830943
0.001114617
0.0002728519
0.001906554
-0.001139417
0.001497959
0.002032325
-0.0003883636
0.004410463
-0.001922805
0.003535062
-0.003113518
0.002310737
-0.003585637
0.000351301
-0.003484059
-0.0008437981
-0.003395954
-0.001120913
-0.003670812
-0.0006360805
-0.004344626
0.00164635
-0.004570012
0.002645879
-0.003799771
-8.361594e-05
-0.002268652
-0.003512613
-0.0007711394
-0.004041225
-0.0001864205
-0.001724113
-9.620305e-05
-0.0003179493
-0.0002292089
8.355643e-05
-0.000520701
0.00055192
-0.0006772622
0.0006000375
-0.000185275
-0.0007704913
0.001014324
-0.002885507
0.001672418
-0.001577973
0.001281821
0.001320342
0.0004049088
0.002649863
0.0005847542
0.0003510556
0.002108743
-0.003155803
0.00320672
-0.00583302
-0.00148446
0.005978002
-0.01284582
0.03233939
-0.01353857
0.001820563
-0.01238612
-0.003331486
-0.01188638
-0.001267565
-0.0114062
-0.001306367
-0.01104853
-0.0009713124
-0.01072105
-0.0008934934
-0.01044743
-0.0007614779
-0.009986879
-0.001173863
-0.009785476
-0.0005474733
-0.009603541
-0.0004845848
-0.009431757
-0.0004538895
-0.009273565
-0.0004136918
-0.009118426
-0.0004028844
-0.008970846
-0.0003830753
-0.008825935
-0.0003721203
-0.008691658
-0.0003409145
-0.008560283
-0.0003270633
-0.008434538
-0.0003128528
-0.008307963
-0.0003124615
-0.008187699
-0.0002950157
-0.008068007
-0.0002902157
-0.00795253
-0.0002768355
-0.007841036
-0.0002623676
-0.007728835
-0.0002643613
-0.007618368
-0.0002607632
-0.007506922
-0.0002626473
-0.007398943
-0.0002521444
-0.007292131
-0.0002431596
-0.007189085
-0.0002314304
-0.007081428
-0.0002414182
-0.006976975
-0.0002349987
-0.006867912
-0.0002452842
-0.006763571
-0.0002306861
-0.006657911
-0.0002297613
-0.006551042
-0.0002334284
-0.006442708
-0.0002363445
-0.006332854
-0.0002394922
-0.006223749
-0.0002324673
-0.006112292
-0.0002314609
-0.006137728
8.516262e-05
-0.006038394
-0.000192139
-0.005944777
-0.0001930393
-0.005847625
-0.0001988162
-0.005753708
-0.0001898949
-0.005655659
-0.0001980067
-0.005559356
-0.0001924645
-0.00546077
-0.0001949313
-0.005361824
-0.0001953688
-0.005257707
-0.0002092646
-0.005152099
-0.0002137504
-0.005046442
-0.0002116135
-0.004938409
-0.0002149087
-0.004828827
-0.0002169089
-0.0047115
-0.0002372519
-0.004589169
-0.0002515359
-0.004463613
-0.0002576441
-0.004334251
-0.0002661058
-0.00419488
-0.0002907783
-0.004051417
-0.000301048
-0.003896783
-0.0003288737
-0.003732306
-0.0003551892
-0.003553387
-0.0003922652
-0.0033559
-0.0004436768
-0.003126364
-0.0005380876
-0.002870441
-0.0006270031
-0.00258007
-0.0007548637
-0.002232836
-0.001016851
-0.001884788
-0.001290976
-0.001741298
-0.0009900702
-0.001844193
0.0008441465
-0.002335451
0.003151984
-0.0009374613
-0.0037915
0.0002009672
-0.003449117
0.0007516224
-0.001334563
0.001147385
-0.0006790975
0.001449916
-0.0005243434
0.001720301
-0.0004930484
0.001946845
-0.0004113322
0.002132762
-0.0003292264
0.002296538
-0.0002947515
0.002458561
-0.0003049357
0.00260779
-0.000279385
0.002747251
-0.0002562956
0.002874038
-0.000227468
0.002994506
-0.0002155067
0.003107172
-0.0002016447
0.003217261
-0.0002000358
0.003322173
-0.0001892196
0.00342053
-0.0001731445
0.003514565
-0.0001655659
0.003607622
-0.0001667258
0.003696545
-0.0001569569
0.003781179
-0.00014823
0.00386646
-0.0001524618
0.003945512
-0.0001391769
0.004026421
-0.0001490165
0.004106947
-0.000151463
0.004184396
-0.0001399989
0.004257142
-0.0001279073
0.004330351
-0.0001307655
0.004402112
-0.0001324002
0.004477525
-0.0001270525
0.004460011
7.767277e-05
0.004541311
-0.0001553738
0.004622786
-0.0001630361
0.0047025
-0.0001607476
0.004781251
-0.0001591535
0.004860162
-0.000162012
0.004938331
-0.0001581565
0.005012836
-0.0001483147
0.005088912
-0.0001535819
0.005163675
-0.0001553012
0.005241856
-0.0001641513
0.005315297
-0.0001503877
0.005388802
-0.0001480449
0.005461173
-0.0001482994
0.005535326
-0.0001546437
0.005608149
-0.0001532699
0.005683047
-0.0001608669
0.005758386
-0.0001628207
0.00583291
-0.0001612299
0.005909289
-0.0001650281
0.005981485
-0.0001546955
0.006059249
-0.000172314
0.006134995
-0.0001707231
0.006213067
-0.0001757352
0.006290804
-0.0001787902
0.006370355
-0.0001835846
0.006450836
-0.0001908397
0.006535184
-0.0002028868
0.006618016
-0.0002001163
0.006704204
-0.0002115168
0.006795354
-0.0002293081
0.006893133
-0.0002629555
0.007162923
-0.0006616651
0.007292767
-0.0003553551
0.007443403
-0.0004046571
0.007602497
-0.0004319199
0.007813944
-0.0005594809
0.007978446
-0.000469326
0.008453208
-0.001237466
0.002353329
-0.001209329
0.002746049
-0.00532822
-4.913219e-05
-0.004609314
0.0006880278
-0.002071723
0.001226186
-0.001217256
0.001618346
-0.0009165029
0.001959504
-0.000834206
0.002243927
-0.0006957557
0.002477144
-0.0005624429
0.002681189
-0.0004987968
0.002882405
-0.000506152
0.003067521
-0.0004645005
0.003241264
-0.0004300386
0.003399847
-0.0003860518
0.003550576
-0.0003662349
0.003691845
-0.0003429142
0.003829497
-0.0003376879
0.003961301
-0.0003210237
0.004084758
-0.0002966014
0.004203353
-0.0002841606
0.004320461
-0.0002838337
0.004432717
-0.0002692127
0.004539872
-0.0002553858
0.00464813
-0.0002607198
0.00474854
-0.0002395864
0.004851431
-0.0002519079
0.004953839
-0.0002538708
0.005052259
-0.000238419
0.005145703
-0.0002213515
0.005239173
-0.0002242357
0.005330662
-0.0002238891
0.005427988
-0.0002243785
0.005414531
9.112962e-05
0.005515409
-0.0002562512
0.005617794
-0.0002654215
0.005716749
-0.0002597026
0.005814406
-0.0002568103
0.005912214
-0.0002598199
0.006008762
-0.0002547042
0.006101021
-0.0002405745
0.006194885
-0.0002474452
0.00628701
-0.0002474266
0.006383033
-0.0002601744
0.006473408
-0.0002407619
0.006563821
-0.0002384586
0.006652974
-0.0002374519
0.006743878
-0.0002455478
0.006833084
-0.0002424755
0.006924739
-0.0002525226
0.007016669
-0.0002547509
0.007107648
-0.0002522081
0.007200937
-0.0002583172
0.007288783
-0.000242542
0.007383676
-0.0002672072
0.007475434
-0.000262481
0.007569783
-0.0002700837
0.007663969
-0.0002729759
0.007759405
-0.0002790209
0.007856352
-0.0002877864
0.007957172
-0.0003037073
0.008055963
-0.0002989077
0.008158456
-0.0003140095
0.008266593
-0.0003374452
0.008555941
-0.0005523037
0.008700242
-0.0008059656
0.008849579
-0.0005046927
0.009025874
-0.0005809517
0.009218191
-0.0006242373
0.009467088
-0.0008083778
0.009705148
-0.0007073856
0.01014145
-0.001673773
0.009358091
0.003136692
-0.01610281
0.01577005
0.002153316
-0.01500987
-0.00442442
-0.01431369
-0.001963753
-0.0137408
-0.001879255
-0.0133023
-0.001409806
-0.01291001
-0.001285789
-0.01258593
-0.001085557
-0.01228725
-0.001472537
-0.01179487
-0.001039862
-0.01157968
-0.0006997747
-0.011376
-0.0006575709
-0.01118894
-0.0006007445
-0.01100557
-0.0005862552
-0.01083106
-0.0005575913
-0.01065994
-0.0005432368
-0.01050099
-0.0004998635
-0.01034612
-0.0004819363
-0.01019771
-0.0004612606
-0.01004851
-0.0004616574
-0.009906848
-0.0004366816
-0.009766297
-0.000430766
-0.009630302
-0.0004128314
-0.009499804
-0.0003928649
-0.009368376
-0.0003957897
-0.009239294
-0.0003898448
-0.00910945
-0.0003924912