/*--------------------------------*- C++ -*----------------------------------*\
| =========                 |                                                 |
| \\      /  F ield         | OpenFOAM: The Open Source CFD Toolbox           |
|  \\    /   O peration     | Version:  2406                                  |
|   \\  /    A nd           | Website:  www.openfoam.com                      |
|    \\/     M anipulation  |                                                 |
\*---------------------------------------------------------------------------*/
FoamFile
{
    version     2.0;
    format      ascii;
    arch        "LSB;label=32;scalar=64";
    class       volScalarField;
    location    "0.5";
    object      p;
}
// * * * * * * * * * * * * * * * * * * * * * * * * * * * * * * * * * * * * * //

dimensions      [0 2 -2 0 0 0 0];

internalField   nonuniform List<scalar> 
15536
(
-14.61339
-10.99018
-8.047714
-6.066583
-5.527007
-5.647237
-6.327848
-7.547561
-8.59011
-9.116756
-9.263833
-8.948009
-9.972238
-12.4761
-13.57822
-13.72223
-13.01951
-11.98027
-11.3086
-10.01101
-6.552538
-1.431935
3.318236
5.63205
6.372246
3.565527
-3.943727
-12.84971
-27.37666
-57.3014
-102.7814
-124.189
-91.11049
-29.29871
-25.77176
-50.82691
-77.69778
-93.58838
-89.71505
-79.89367
-79.22527
-83.90799
-88.41975
-91.18545
-92.52913
-92.56804
-91.57084
-89.51762
-86.90125
-83.88028
-80.15279
-75.82178
-70.86584
-65.51892
-59.73935
-53.59942
-47.41582
-41.11343
-34.47156
-27.66381
-20.96103
-14.37574
-7.811659
-1.324618
4.958488
11.12091
17.00349
22.58233
27.7565
32.51943
36.83003
40.68614
44.05226
46.85572
49.05381
50.7448
51.78929
52.23765
52.13131
51.52615
50.16274
48.11767
45.47211
42.23045
38.41483
34.04506
29.19531
23.77415
17.95312
11.78028
5.097125
-1.896384
-9.126509
-16.79194
-24.59484
-32.32018
-40.20527
-48.22734
-56.18805
-64.16789
-71.9966
-79.4836
-86.58552
-93.38688
-100.0151
-106.1449
-111.7501
-116.779
-121.245
-125.2168
-128.3942
-130.6885
-132.1229
-132.6851
-132.1272
-130
-125.9207
-120.194
-115.4744
-118.2017
-127.9953
-127.9989
-106.8034
-75.08073
-52.0085
-86.05705
-159.3517
-168.7832
-121.6005
-71.80924
-44.40996
-31.26841
-20.39975
-13.08878
-13.19518
-16.94608
-26.94523
-38.99372
-46.38117
-46.487
-40.33925
-33.19547
-26.82406
-21.89148
-20.89641
-21.31623
-21.14369
-19.90195
-17.70255
-14.76175
-12.70998
-14.32805
-18.90519
-22.28883
-22.91628
-21.28527
-18.32153
-14.52797
-10.94136
-8.029921
-6.063433
-5.528928
-5.651004
-6.3292
-7.543238
-8.583114
-9.114574
-9.257878
-8.945815
-9.96786
-12.47706
-13.58817
-13.72621
-13.02724
-11.9908
-11.31605
-10.01526
-6.561649
-1.437482
3.348927
5.691561
6.377333
3.515557
-3.990876
-12.82333
-27.27339
-57.15042
-102.6517
-124.2586
-91.26637
-29.25345
-25.94975
-50.96753
-77.90099
-93.65947
-89.63528
-79.88789
-79.05869
-83.37563
-87.56986
-90.05581
-91.27247
-91.26434
-90.24842
-88.18883
-85.57606
-82.57769
-78.87936
-74.58609
-69.67088
-64.37091
-58.64672
-52.56429
-46.4392
-40.20027
-33.6269
-26.88421
-20.24725
-13.72872
-7.230461
-0.8052819
5.416794
11.51671
17.33856
22.86178
27.98497
32.70007
36.96806
40.78678
44.12037
46.89877
49.07587
50.75215
51.78863
52.23423
52.1291
51.5283
50.17547
48.14968
45.52959
42.31899
38.54034
34.21383
29.41221
24.04502
18.28517
12.17317
5.556463
-1.363255
-8.525055
-16.11898
-23.84109
-31.48743
-39.29574
-47.23736
-55.11852
-63.02034
-70.77317
-78.1854
-85.21842
-91.95922
-98.53193
-104.6063
-110.1651
-115.1516
-119.5847
-123.5359
-126.7002
-128.9979
-130.451
-131.0578
-130.583
-128.638
-124.916
-119.5872
-115.3124
-118.2015
-127.9008
-128.1641
-107.0723
-75.19063
-51.96813
-86.05207
-159.6126
-168.7364
-121.3981
-71.63637
-44.30034
-31.27896
-20.49309
-13.16087
-13.15546
-16.90459
-26.94543
-38.98861
-46.35267
-46.44825
-40.33401
-33.21123
-26.82782
-21.88914
-20.8948
-21.31565
-21.14815
-19.91444
-17.69566
-14.74097
-12.69512
-14.32719
-18.86653
-22.1983
-22.74705
-21.11591
-18.1928
-14.4827
-10.91455
-8.02732
-6.067605
-5.536687
-5.661232
-6.336448
-7.546421
-8.587777
-9.117923
-9.238842
-8.91985
-9.954291
-12.49577
-13.61388
-13.74154
-13.04751
-12.0184
-11.34141
-10.04186
-6.615037
-1.506916
3.34672
5.731176
6.371627
3.407481
-4.082656
-12.7956
-27.16983
-57.16474
-102.999
-125.1926
-92.56293
-29.19145
-25.75666
-50.90821
-77.68742
-93.58495
-89.64273
-79.87074
-78.89663
-82.8387
-86.74511
-89.16693
-90.45591
-90.47211
-89.49275
-87.45248
-84.85163
-81.87898
-78.19234
-73.9216
-69.02586
-63.75985
-58.07206
-52.00433
-45.90603
-39.70669
-33.15871
-26.44529
-19.83937
-13.35826
-6.896421
-0.5002663
5.682787
11.75481
17.54392
23.03699
28.13151
32.81957
37.06072
40.85527
44.16701
46.92948
49.08836
50.75332
51.78275
52.22527
52.12182
51.52557
50.18054
48.17026
45.56834
42.37891
38.62519
34.32589
29.55548
24.21537
18.49007
12.4143
5.828609
-1.052312
-8.171795
-15.73112
-23.41434
-31.01512
-38.78785
-46.69452
-54.52988
-62.40778
-70.12475
-77.50624
-84.50536
-91.20372
-97.74626
-103.7871
-109.324
-114.2878
-118.6962
-122.631
-125.7727
-128.0398
-129.4592
-130.0398
-129.5197
-127.4941
-123.8785
-118.9172
-115.0557
-117.994
-127.7306
-127.9127
-106.7991
-74.99166
-51.3686
-86.32115
-161.1926
-169.771
-121.634
-71.56413
-44.17437
-31.30884
-20.65279
-13.28327
-13.15678
-16.9795
-27.11207
-39.07727
-46.41916
-46.50649
-40.3689
-33.26714
-26.85214
-21.90888
-20.87794
-21.22504
-21.10838
-19.92515
-17.7016
-14.70743
-12.69705
-14.43905
-18.99449
-22.18999
-22.71068
-21.04661
-18.12878
-14.43834
-10.89423
-8.039786
-6.084739
-5.554327
-5.681673
-6.353016
-7.55912
-8.595136
-9.125954
-9.219433
-8.879776
-9.941221
-12.53174
-13.66165
-13.76811
-13.09126
-12.07473
-11.3996
-10.10406
-6.723947
-1.645647
3.329346
5.844245
6.436528
3.279433
-4.144056
-12.72626
-27.05407
-57.34628
-103.7818
-126.7578
-94.85328
-29.45079
-25.24837
-50.40755
-76.37442
-91.43854
-88.32734
-79.56429
-78.60339
-82.04305
-85.5467
-87.71155
-88.81275
-88.7558
-87.78449
-85.75994
-83.18199
-80.25462
-76.63038
-72.43167
-67.60486
-62.40749
-56.79965
-50.81273
-44.7892
-38.67491
-32.22247
-25.58354
-19.05373
-12.65504
-6.274264
0.05158721
6.156298
12.16166
17.88434
23.32067
28.35871
32.99467
37.19029
40.94631
44.22412
46.96338
49.09644
50.74748
51.76873
52.20787
52.10698
51.5155
50.17783
48.18939
45.6133
42.45483
38.73982
34.48633
29.77107
24.48203
18.82622
12.81908
6.299675
-0.492823
-7.530814
-15.0196
-22.60047
-30.10474
-37.79247
-45.59761
-53.33326
-61.11626
-68.7364
-76.01197
-82.90965
-89.53103
-95.99433
-101.9414
-107.4014
-112.2838
-116.6454
-120.5374
-123.6315
-125.8678
-127.2891
-127.9114
-127.5125
-125.7125
-122.3931
-117.9317
-114.5652
-117.1451
-125.7268
-125.1276
-105.27
-74.42401
-51.17768
-87.20607
-163.6554
-171.0876
-122.2192
-71.57918
-44.02363
-31.27977
-20.7691
-13.27937
-12.93653
-17.13967
-27.41161
-39.23249
-46.5726
-46.66055
-40.45194
-33.36688
-26.89534
-21.96349
-20.875
-21.11988
-21.0267
-19.93399
-17.70611
-14.68149
-12.74791
-14.76176
-19.22174
-22.15789
-22.56625
-20.92443
-18.04798
-14.41265
-10.8868
-8.073113
-6.119832
-5.587471
-5.718085
-6.384086
-7.587972
-8.617125
-9.145691
-9.210594
-8.839507
-9.938066
-12.6056
-13.74766
-13.83369
-13.17887
-12.17718
-11.51418
-10.24275
-6.9213
-1.854759
3.350428
6.109504
6.6327
3.225483
-4.132836
-12.60394
-26.98702
-57.75867
-105.023
-128.7996
-97.57307
-31.11848
-25.34238
-49.92657
-73.72621
-87.51898
-85.64071
-78.87145
-78.16724
-81.19375
-84.4135
-86.42161
-87.58545
-87.55386
-86.6008
-84.58334
-81.95427
-79.07246
-75.43608
-71.26603
-66.44879
-61.29382
-55.74463
-49.77933
-43.80247
-37.76665
-31.37441
-24.78066
-18.31135
-11.99069
-5.67925
0.5950202
6.62291
12.57408
18.23409
23.61282
28.59014
33.1775
37.3264
41.04113
44.27679
46.98972
49.09379
50.7283
51.74121
52.17699
52.07961
51.49107
50.15775
48.20003
45.65828
42.53502
38.86149
34.65391
29.99589
24.75552
19.17597
13.23232
6.762833
0.06475839
-6.891505
-14.33983
-21.83122
-29.24106
-36.8685
-44.60431
-52.24647
-59.97881
-67.53869
-74.7508
-81.59199
-88.15224
-94.58648
-100.4783
-105.9221
-110.7772
-115.1148
-119.0386
-122.0899
-124.3281
-125.752
-126.3865
-125.9171
-124.1058
-120.9501
-116.8538
-113.8759
-115.7831
-122.2725
-120.8492
-102.9481
-74.42403
-52.36394
-89.4243
-166.3331
-172.7419
-123.1018
-71.69152
-43.90413
-31.14522
-20.7479
-13.0037
-12.38869
-17.24866
-27.75847
-39.49678
-46.90175
-46.97714
-40.61868
-33.54754
-26.98679
-22.03583
-20.89089
-21.04652
-20.96054
-19.96762
-17.74756
-14.72985
-12.97465
-15.31688
-19.54085
-22.19698
-22.51627
-20.83167
-17.98832
-14.41826
-10.90505
-8.141058
-6.163507
-5.639883
-5.78004
-6.437273
-7.643397
-8.660392
-9.183589
-9.222229
-8.822904
-9.971777
-12.7498
-13.8955
-13.95586
-13.3261
-12.34597
-11.70951
-10.49359
-7.255004
-2.109792
3.383933
6.566363
6.995942
3.327678
-3.998988
-12.44309
-27.03178
-58.30379
-106.4319
-130.7923
-100.1463
-35.14291
-27.249
-50.15897
-71.33831
-83.53009
-82.72416
-77.84692
-77.40027
-79.97775
-82.82279
-84.48686
-85.50608
-85.2956
-84.40673
-82.4343
-79.8481
-77.09838
-73.54267
-69.48569
-64.74841
-59.67375
-54.22439
-48.33311
-42.45992
-36.54386
-30.23927
-23.72644
-17.36337
-11.14068
-4.925314
1.276192
7.194852
13.07701
18.64895
23.94006
28.85106
33.38969
37.48019
41.1425
44.3204
47.0104
49.07723
50.68705
51.69296
52.12464
52.03091
51.44424
50.11729
48.19343
45.69846
42.62127
38.99849
34.84733
30.25227
25.06175
19.59284
13.73873
7.31029
0.7253026
-6.085618
-13.47295
-20.859
-28.12487
-35.64294
-43.28349
-50.80087
-58.42344
-65.87003
-72.96664
-79.67574
-86.12853
-92.48911
-98.24495
-103.6033
-108.3384
-112.5827
-116.4181
-119.3898
-121.528
-122.892
-123.6071
-123.3457
-121.7432
-118.9306
-115.3099
-112.7849
-114.098
-118.7035
-116.6255
-100.87
-75.90874
-56.19953
-93.35702
-168.4373
-174.2902
-124.002
-71.95283
-43.8727
-30.92312
-20.51866
-12.45921
-11.55243
-17.22062
-28.13613
-39.95563
-47.50518
-47.54975
-40.90801
-33.87212
-27.10929
-22.13704
-20.92048
-20.96991
-20.95913
-20.08106
-17.90357
-14.92616
-13.55047
-16.08156
-19.93324
-22.27604
-22.50226
-20.76865
-17.95568
-14.50205
-11.01263
-8.305868
-6.226329
-5.717767
-5.882738
-6.527051
-7.740656
-8.743149
-9.257113
-9.267419
-8.869634
-10.08502
-12.99167
-14.13203
-14.17529
-13.54413
-12.61922
-12.04102
-10.89006
-7.772623
-2.489301
3.458889
7.223153
7.531206
3.644604
-3.753576
-12.29196
-27.02591
-58.43291
-107.5085
-131.8032
-102.472
-40.8684
-31.20865
-50.88214
-69.01492
-79.80194
-79.92136
-76.64901
-76.47258
-78.69714
-81.29999
-82.65893
-83.70606
-83.55223
-82.62223
-80.58245
-77.88846
-75.22841
-71.64977
-67.69489
-62.97454
-57.91697
-52.59347
-46.81776
-41.00555
-35.1505
-28.98184
-22.59745
-16.31293
-10.13631
-4.094215
2.03913
7.824488
13.63881
19.08826
24.29226
29.19568
33.62913
37.63029
41.22009
44.34222
47.05593
49.04255
50.62253
51.619
52.04146
51.9519
51.38497
50.07729
48.14331
45.68362
42.66774
39.11423
35.06028
30.54999
25.38445
20.03459
14.32634
7.988006
1.449551
-5.248203
-12.45932
-19.75232
-26.91669
-34.29981
-41.75278
-49.22679
-56.76793
-64.03248
-71.05798
-77.61906
-83.97441
-90.30683
-95.93182
-101.2719
-105.904
-110.1444
-114.0576
-116.9703
-119.1797
-120.7005
-121.3642
-121.0294
-119.4837
-116.917
-113.6641
-111.4998
-112.2399
-115.2323
-112.5919
-98.86468
-78.43443
-62.24639
-98.02031
-168.9046
-174.3215
-124.2366
-72.23392
-44.08242
-30.72611
-19.93212
-11.7178
-10.69146
-17.09759
-28.6194
-40.73239
-48.52392
-48.49303
-41.34256
-34.28879
-27.17221
-22.38006
-21.03231
-20.87928
-20.90187
-20.26455
-18.2764
-15.37663
-14.57864
-17.05855
-20.42482
-22.45942
-22.57967
-20.75004
-17.97482
-14.72317
-11.27435
-8.611698
-6.472736
-5.855797
-6.046254
-6.692308
-7.901602
-8.887013
-9.389608
-9.38975
-9.025468
-10.33745
-13.39544
-14.54753
-14.43689
-13.90904
-13.07461
-12.60341
-11.5194
-8.531915
-3.046716
3.519025
8.001938
8.150559
4.237742
-3.461042
-11.99641
-26.76702
-57.03225
-106.423
-129.6874
-102.865
-47.15048
-36.45379
-51.70473
-66.6026
-76.0616
-76.91375
-75.08386
-75.09041
-76.86982
-79.29288
-80.03057
-81.00493
-80.66915
-79.88056
-78.07889
-75.17631
-72.70997
-69.25166
-65.46655
-60.71358
-55.73298
-50.75672
-45.13781
-39.09106
-33.41553
-27.62893
-21.40344
-14.95013
-8.901549
-3.250115
2.911717
8.484684
14.27361
19.48841
24.77682
29.67625
33.85907
37.74465
41.23611
44.34083
47.0936
48.94359
50.54159
51.51245
51.9211
51.84649
51.32271
49.99816
48.05307
45.5831
42.64157
39.169
35.23506
30.93
25.74938
20.48647
14.95057
8.950834
2.480642
-4.486171
-11.38122
-18.27785
-25.59572
-32.89978
-39.8737
-47.16892
-55.03415
-61.80046
-68.834
-75.20582
-81.36705
-87.69702
-93.0467
-98.43147
-102.7884
-106.885
-110.843
-113.5797
-115.6527
-116.8534
-117.8223
-117.7201
-116.363
-114.1553
-111.3002
-109.6284
-109.9562
-111.5308
-108.4386
-96.54181
-81.21271
-69.18497
-101.3332
-164.4588
-169.2009
-121.4815
-72.03076
-44.6533
-30.89263
-19.88542
-11.37637
-10.09744
-16.99503
-29.3214
-41.96865
-50.21364
-50.18914
-42.21514
-34.45941
-27.36259
-22.79102
-21.16694
-20.7778
-20.94202
-20.64791
-18.84239
-16.25479
-16.05981
-18.25633
-21.03615
-22.77545
-22.77579
-20.76736
-18.10817
0.4773112
-0.03609919
-29.89382
-29.38084
11.43247
-25.78861
0.1777326
-0.100263
11.12907
-3.499437
-3.212499
0.5969538
-2.241824
-0.6855938
-0.7594985
2.305893
0.3196267
-4.995167
0.175281
-0.3521552
-104.2887
0.001228376
1.537005
-3.643094
-0.0979013
0.496403
0.7624341
-2.877903
-9.793531
-0.155796
0.4227499
-18.40631
0.3613153
-0.02340497
0.1579653
-6.937852
0.07186077
-0.08214575
0.06124766
-8.1355
-24.33346
1.133076
-0.3358097
2.116439
33.78078
-0.1508956
0.02102508
0.105729
0.4220034
-3.035763
0.2308279
0.1218841
2.400312
0.1295518
0.02548857
23.09306
-6.589439
0.3054262
-16.18244
-26.27109
-2.777654
-0.00419094
-2.992714
0.4366448
-6.922249
0.556323
-26.04485
-0.01660363
0.01548309
-0.04402863
-1.805812
0.03175834
-14.51261
-48.04294
21.54657
-0.0952032
3.256922
-4.346604
0.06618839
0.2382076
-26.88099
0.04178249
2.551181
0.1108711
-12.89287
-0.1712116
0.3733627
-0.2605173
-50.27583
0.07681795
-19.21659
21.74617
0.1951823
0.06839815
-0.07244496
0.8961955
8.865517
4.873913
-36.59669
0.04175225
-0.01230508
-0.2681115
0.1624934
-90.21234
0.0004800431
-15.49336
0.009027316
-0.3341725
-3.934774
8.094103
0.143633
-0.5175391
-0.1567151
6.620948
-17.76217
0.002221548
0.0373965
-0.07638635
19.92788
-0.4776737
1.362365
0.06426193
-1.755803
0.01170447
0.004991424
-4.531937
-1.437121
-19.516
0.3755035
0.4492407
-0.003317956
0.1669306
0.1827275
-0.8854771
0.1608461
-26.45277
0.0878083
7.135231
0.1340188
0.03799541
-26.61132
-0.5221146
-67.9162
0.04608243
0.003408466
0.1176592
-0.8620155
-46.68623
-0.0596394
-1.708434
0.3751589
-16.25988
-23.52642
0.01729555
1.491972
-41.79591
-0.1496385
0.1115291
0.1914777
-33.67005
0.2885117
-29.75323
4.086357
-0.9179384
0.8676446
14.33206
-25.59247
0.9826395
-26.75699
-0.0007256145
0.07967984
-36.70684
0.4150922
-26.30031
-10.05021
5.560809
1.744084
-0.1006975
-35.30893
0.05948729
15.5483
0.5671138
-0.03565851
-0.400914
2.390703
-49.48952
0.106551
-0.09502283
1.859909
0.3373718
-1.192407
0.06212032
-10.98618
-4.412645
0.00420894
-0.423071
-0.005408788
-0.8863872
-6.635916
-36.98171
-0.4845386
0.1903455
0.2125199
-81.94576
0.4507951
-6.423659
-9.768954
0.04147477
-11.84356
0.001862884
0.444509
0.1978667
0.9867775
1.005814
0.1427822
-4.311887
-15.08795
-0.2044593
3.44865
0.1865282
0.86799
0.4784054
2.274121
0.2573424
-5.611207
-2.891394
0.0005553291
7.209105
0.1153482
18.96206
-7.431147
-54.66102
3.23086
-0.004863181
-81.84792
-0.4221223
26.95431
0.1767107
1.483527
-1.094331
-0.976091
0.336156
-0.005002041
-12.22703
0.2967061
15.30785
-0.08911492
-36.49502
0.04773376
-0.6896489
-36.52004
-0.05093674
-0.1335283
-0.2564976
2.198163
-31.08882
0.07583068
0.09919479
-1.244482
-7.982861
-2.172195
0.03849965
0.393824
0.1470261
-1.581618
1.615793
-0.4577314
-0.03918774
-10.39446
-29.71453
0.06957407
0.1610829
12.18713
-2.494479
0.2247869
2.661725
0.8812208
-22.12112
-48.2888
-0.7775614
0.007398485
-0.1990359
0.1018396
0.5860712
0.6760635
0.3232428
35.75741
-1.318324
1.233862
-0.003680073
1.06718
-0.005773181
-0.2146248
-0.03381523
-32.49936
0.01753419
-25.10565
0.006854127
0.6002588
-1.196944
-45.98479
-0.002056205
0.05900875
-4.248193
-1.557984
-0.01946973
-0.001922394
-0.1438739
0.3873246
0.3053942
-1.707186
0.05986508
-0.07952623
0.1700255
-1.438394
-15.2572
34.46506
-60.00466
-16.72801
-58.49614
-1.900139
0.01779336
-0.1997982
0.02229492
0.02841225
0.04072809
-0.1410006
-0.00142259
-0.1997309
3.966523
17.50582
0.01685711
-10.3128
-31.65695
-0.01700492
1.249155
-0.007188806
-0.002139776
-5.887801
0.151033
-39.34122
-1.677288
-0.3212033
-0.9087964
-16.49248
3.337782
10.19521
-1.33607
-13.95902
0.01195021
0.08332608
0.04398793
13.15656
0.1354193
-1.905335
-24.19879
-56.08783
-0.000610255
0.303089
0.6231189
0.08569364
0.2345853
0.05866422
1.446611
-0.2222859
1.334547
1.092114
0.4155609
0.2799129
0.5855782
-4.914744
12.45534
-41.47475
-0.203588
1.326885
0.09896147
0.2880996
0.962377
0.899641
0.4136861
0.5934548
0.8579797
-0.01198556
-9.397921
-0.004418566
-0.02983246
0.1095651
37.75994
1.312486
0.002471087
0.2318373
-0.6553267
1.278902
-29.50023
-0.001602599
-2.407153
-0.1636732
1.328017
0.5959588
-0.2696809
1.300932
-0.4718769
-32.88199
0.07524335
0.01076668
0.3060738
-31.2679
-54.35505
1.360175
0.6926465
0.228302
0.03685772
-0.003813764
0.0622813
1.231044
-2.086952
0.9150431
1.351559
0.1211252
9.87336
-0.7622915
-0.09082284
3.644512
-0.07700735
-1.405742
-30.45907
0.1140784
0.5364622
-20.78347
0.1978485
-22.88179
0.2411662
0.1888643
0.2766583
0.3401731
0.9965288
-0.02784804
-8.239735
-0.1117792
-0.2895292
0.01283282
-0.01390386
1.9018
-0.2965926
-6.536749
0.4542693
0.02484777
0.0253828
0.148741
-1.343162
-0.2118246
-54.68492
0.9381846
-6.369497
-0.1195107
0.007498535
0.01507442
4.136377
0.3808906
-22.61903
-0.4602299
-32.11465
-0.5607893
-0.08499476
1.020245
-0.04512812
25.8511
-0.3963495
3.20849
-3.270266
-13.94134
-3.336374
0.3591635
7.311813
0.06897051
-5.042898
0.3781531
-29.50878
-0.00423426
-0.6668141
4.033158
0.2905827
0.5892912
-0.3771749
0.1843287
-0.06548047
0.02442723
16.14815
0.009983443
1.042392
0.01981775
-27.65819
-2.097584
0.01244074
-23.48582
0.2525684
0.3070618
3.085033
-0.03714527
2.952885
0.3848337
-0.3385628
0.04874279
-7.183134
1.369343
0.3880807
-0.1275297
0.5056467
0.3196872
0.1697495
-29.06064
3.971228
16.04452
-3.581467
0.8903389
0.6805448
0.9690248
-0.05127178
0.005926536
0.2659656
0.3234643
-0.313839
-11.64899
0.01714034
-0.006116654
-2.603908
0.04214051
2.160717
0.08373615
0.0853266
-29.56224
-0.8701658
-29.56583
0.04973304
3.472013
3.671472
2.514096
0.05504729
0.516642
0.1628819
3.638651
0.4878098
-0.7587389
0.6532585
-39.7829
1.897164
2.894941
0.0117106
0.0132845
7.046866
0.6084911
4.96295
0.2683483
-5.941287
6.089727
-0.00133744
0.1608592
1.041134
15.55323
-2.431917
0.05946013
0.5354618
0.3508966
0.418309
0.03944383
0.3450375
0.3137137
8.885357
31.79431
0.09603506
0.4161642
5.391909
2.254835
-65.22766
0.1654264
2.083723
-0.003074973
2.22109
-0.08314942
0.0352267
1.648955
0.02023204
5.327344
-0.02902522
2.214292
-25.48483
0.6913423
0.1568795
-82.72054
-5.936625
-2.954339
-16.66839
0.5866385
0.002885815
0.3711287
0.07274253
0.2834362
-44.35536
0.3274633
0.4585074
0.4158811
2.950284
0.03490253
-0.04853156
0.6682904
-17.08764
-8.218228
-0.3190852
-17.5861
0.1917458
3.837584
-0.05188551
-6.130209
0.3263246
8.374129
-18.37565
-1.627087
0.2267076
5.888017
3.494763
0.6505686
0.04921706
0.2394125
0.07102075
0.02126685
17.563
1.765361
-0.7654221
-0.06601047
-4.478465
3.112206
10.33087
-17.28421
1.480252
-40.44764
-10.74641
-19.15923
-0.1429004
-1.987081
0.4356198
0.3749941
0.04746752
0.2276259
1.244299
-0.008538531
-0.3123601
-0.0520978
-42.74646
0.0996675
25.36852
3.644329
-25.88608
0.07758862
-7.429514
6.382796
-4.721357
-17.95259
0.1905717
0.766217
-20.70047
-0.455051
0.2260465
-0.7505731
0.2882058
0.05289169
0.08065884
0.6006289
1.796148
-0.01799563
-3.554633
0.317863
0.2239728
-85.77378
0.1597953
0.2469432
5.259262
-61.89101
0.03906682
-1.076727
4.838611
13.35515
8.908233
1.264599
0.3844606
0.4025929
0.04392742
-0.1296549
-4.498993
2.008926
0.6581603
-16.86573
0.03413907
-32.00409
0.03763035
-0.002072903
0.05383979
-38.82492
0.8424923
0.02928999
-0.467242
0.1950724
-12.58878
2.198951
-4.51412
3.189591
6.309251
1.261403
0.3649393
-17.79211
0.4813725
-0.111523
-0.592059
1.156853
0.1385955
-2.248798
-1.160912
0.7010603
-44.13255
-0.06780095
0.1045337
0.4237258
0.07188841
-1.056783
0.3586789
-0.02181953
-0.3953974
-0.3115026
-29.26499
0.3938021
0.3346781
0.1930457
0.1110877
0.4066158
-0.2684722
-0.05342442
0.1642712
0.1144951
3.526287
-10.21844
0.1656083
-0.009337398
0.1364051
0.2527308
-0.5307852
1.4943
-0.04509361
-55.17622
1.948908
0.7365788
9.055611
0.04324394
-18.11478
-13.4243
0.4447854
0.02551596
-36.10061
1.043863
-8.8635
-13.65856
-7.751513
-6.437611
-1.479032
1.384444
12.08199
0.3765141
0.4268631
-98.67648
0.2045551
0.1970819
0.3418436
-12.12747
22.87167
-16.90927
0.3166957
1.647128
0.2422461
-0.1367466
0.06578014
-7.043623
0.4871544
0.8736456
-2.786716
0.3259285
0.7166294
3.380556
0.4040518
0.2904933
0.03388462
0.8637753
-1.04271
-2.195669
-15.38855
30.82865
0.01689672
0.08153263
-0.6697267
-0.2359154
0.06484223
-0.103176
-37.05496
-0.6878804
-65.43782
-9.119143
-1.984847
0.0641656
0.1304528
-2.057747
-0.4533193
0.2795268
0.2335903
0.3505745
-3.349237
-43.26569
0.651887
-2.636244
-0.3666157
-0.12561
-2.451467
1.678144
2.128388
-5.790347
15.77927
0.2306311
-0.3946097
-1.487171
-1.397083
0.9615778
-0.7802425
-0.007308944
-0.4324937
1.211398
-0.1985426
7.787352
-34.02571
0.02357219
0.024788
-17.44235
-2.2193
-0.3869119
0.5988971
-2.372215
-0.6145052
0.06305077
2.637578
1.209531
2.037408
2.964969
-2.120547
0.08386407
30.03971
-0.3791934
-4.684099
0.0480317
-50.33567
0.9850971
0.3514526
-0.0745438
0.02374076
32.36657
-1.795908
-0.1063331
0.6404226
-0.3243639
0.08063994
0.2296428
0.2521
0.3147462
-17.92065
-18.62676
0.2405558
-2.121285
-21.20867
0.04963369
0.01817838
0.2679528
-16.48523
4.632235
29.10835
0.02613786
0.1417341
-1.963487
0.0141291
0.01661704
11.31592
-3.230742
0.3404693
0.07115041
-1.86615
0.1729893
0.1422739
0.05719669
-6.038401
0.818875
-21.35546
2.489369
6.978342
0.08771184
0.6794759
-0.002102849
6.514089
-4.818993
0.001977278
0.1006177
7.901236
-27.98189
5.753359
-0.04886453
-0.4216018
-11.29979
28.80348
0.6042323
-0.02511936
-4.681056
-40.76149
-0.02448661
0.05497923
3.395084
-0.3889458
-1.162339
-19.61482
-3.028021
1.072677
0.2560997
0.1541158
0.03929419
-4.320582
-17.16197
-39.72233
2.325606
-47.05349
0.4754536
-2.157273
-14.41854
-0.3782145
-2.978845
-35.88332
-0.007403724
0.1656689
0.4175785
1.758018
0.05956636
-8.115384
-28.70586
1.988721
17.45604
-0.5282147
0.002024235
-18.51013
15.74693
-13.21888
0.05312799
-0.8947067
1.375191
0.0662328
0.08052285
0.4490168
0.2598961
-0.2413838
-0.6074088
-65.60618
-77.85307
0.05139721
0.5303455
1.97071
0.07185606
0.04241407
2.10907
0.2922482
0.1328416
0.2422558
0.2314064
0.06075683
6.277063
0.3149653
-23.43779
-0.3909218
-0.5912237
-15.08568
0.4117431
-0.4119129
-1.797092
-33.85031
0.8905056
-4.771711
1.572375
-8.144958
-27.96627
35.42728
48.44365
0.5428668
-0.7266838
0.9508133
5.899321
0.4343209
0.03279065
9.900967
-38.10039
0.5010559
-0.1528219
-2.22862
1.511858
-0.2755537
3.430584
-3.35819
-17.17748
-63.02473
0.6549647
1.271352
-0.02627743
1.050958
1.359888
-27.04108
0.2341862
0.3488957
-0.5103787
-0.1232144
0.1024153
0.04459565
-25.38556
-18.24963
0.4626763
0.7174771
0.02163114
0.5716416
0.07440112
0.6315852
0.04166034
-33.86384
-0.6924473
-67.06263
-32.6014
-1.455899
-2.075143
-60.72438
-107.2508
0.4226403
0.7989396
0.6478172
0.2546209
0.03662566
-9.163935
0.1138761
-0.2384908
-0.1613645
0.3796668
0.2918635
-3.38538
-1.01511
0.001764277
0.01087879
0.1034481
0.07974696
-0.05563193
-0.7983495
0.1528264
0.1029657
1.725681
-0.4140025
0.156155
3.246953
0.0183059
1.104348
3.473605
0.02036417
0.1286287
-18.75196
-16.43403
-0.01929841
-0.2357777
0.02421288
-0.07528106
-33.88616
-14.85275
-50.0247
-36.18508
22.95209
-0.01003661
1.947636
0.3217352
-26.61069
0.05051671
2.694375
-83.7436
0.2456366
-0.6307877
1.573601
1.039244
6.296313
-0.06603515
0.04753961
-48.70841
0.05585089
-15.19153
0.789934
-2.614451
34.81672
-16.06123
-9.802586
0.3707148
1.565462
0.5803894
7.56224
0.7871633
6.720172
-0.8729602
0.1385575
-5.189976
0.136544
-4.615656
0.3236864
-13.56053
0.2235339
-104.5712
7.909687
1.047031
18.57879
-0.09572707
28.96904
0.08495007
0.745736
-0.02657073
-1.456639
13.46168
0.5329202
-20.95513
-0.07570586
0.2095914
-0.6341016
-0.4962351
2.547419
-7.818965
3.485429
0.07912148
-24.02299
0.4573135
15.87155
-25.47447
0.8742623
-55.18376
-12.26117
-2.338358
-10.34712
37.86765
-1.638013
-0.1025644
-43.19991
0.1049447
0.09393454
-1.577835
-2.052311
-13.30736
-81.86429
0.8987181
-0.5037556
1.564336
0.1986691
0.2672158
-0.006731786
1.288395
9.535563
3.063278
-0.05125532
0.210747
0.2587657
0.1688559
0.7970641
0.04962544
-0.02341339
0.1147552
-35.48104
0.004943241
-1.377663
0.1631908
-2.76409
-19.94038
0.8114292
0.0710316
1.065629
0.1838712
-0.03668423
0.2582116
0.2519246
0.6252506
-59.11451
23.29771
-4.199528
0.2453756
2.962385
-3.375277
-0.5745538
-0.9624844
0.08206404
-1.476772
-0.01291223
-10.061
0.3265822
-20.8629
0.5365276
3.099391
-0.7662815
0.1742266
-2.719854
-1.366961
1.546592
2.417732
-9.119146
2.19689
0.1128099
0.03771661
-2.769941
0.0155088
-1.038233
-12.25305
0.9792837
-0.5157683
-0.04157083
-5.157825
0.1366381
0.104245
1.595239
-41.93893
-0.03796732
0.05364368
-0.09234715
-52.80406
-0.01424563
-38.82863
-0.1227672
-0.08585558
-1.164112
-1.367662
2.27985
-36.72944
-19.83862
0.1135698
0.1832693
-5.237142
0.02458487
2.447914
1.790821
0.6810577
-0.06042333
-0.05119322
0.3223564
-34.80774
0.2925328
0.2190247
-1.154345
-0.1121183
-2.980512
-0.8382243
-0.04899876
-0.6010851
-8.916096
-1.69732
-3.511887
7.073137
0.1180601
-16.2209
-0.3296158
0.04945613
-3.364336
-18.42165
-0.211155
-0.6943371
0.04170672
-23.60162
-12.4676
-18.56861
-0.06436125
13.2307
0.9118355
-14.53538
-5.381478
0.05021947
15.99405
0.4800513
-4.021505
-80.21107
0.1673359
0.2061623
-3.674958
0.2069276
0.1870367
0.1640308
0.2663178
0.06590814
0.183281
-21.78498
-2.538909
-0.05317478
0.4029498
1.432425
-2.779176
-0.6717374
0.08682134
-0.07651155
-0.7649548
-28.57841
-0.2733042
2.063933
0.3384466
-0.01041017
-21.64031
0.0782108
-3.901086
0.08208355
0.04865115
0.04197643
-34.0148
-1.858156
1.669414
-0.663808
-0.02154114
12.19663
-60.62464
-12.94326
-2.227886
-1.73737
20.49817
-4.506789
0.3212759
0.5009422
-1.484032
0.002869998
-33.78333
-35.23765
-23.47609
9.331862
6.539492
-0.0201794
-55.45565
-51.20682
-75.67446
1.602655
-5.176912
-1.037496
0.1645534
0.08293637
-0.01131941
0.1925613
0.001835307
0.4744575
0.6541125
0.4722702
0.2188285
-31.02721
0.269027
0.6458418
-1.793423
13.81038
19.43957
0.03317694
-0.2724628
-40.04023
-12.54737
4.673224
-7.223257
-5.726998
-16.81629
-68.71249
-0.06232069
-15.33321
0.0306287
-40.74883
-14.44664
0.07103441
0.109854
-30.4043
0.3771858
13.90785
0.2395699
0.0874618
1.889644
-0.07267153
0.02054026
0.1313
-0.8640475
0.0534405
0.1094426
-43.417
0.03441822
-0.5883009
0.2333225
0.4186275
0.4753951
-28.31385
0.1619602
-32.59862
-0.3059682
1.229095
20.57777
-0.008233837
-0.09451044
-32.15851
-0.9674492
-79.30056
0.2269415
0.09189011
-0.1908228
-0.2584982
0.5677172
0.02010258
0.9538734
-3.430447
0.08972772
-0.09856766
-0.01946688
24.27403
0.9133528
-10.43201
1.660884
0.7107827
-0.1500367
-85.02494
-0.1299826
0.4570031
2.750697
1.401055
0.2508264
-59.69364
-52.30674
-45.67498
-0.002546844
0.1640889
-27.1035
0.8589671
-34.82818
-1.130912
-0.2181443
1.83474
-40.48332
0.4588289
-47.87708
-1.049327
1.486116
0.1263528
0.63486
8.76941
-0.7942619
-0.1909955
0.06688733
0.01115393
-2.483177
14.03372
-0.5539573
9.098482
-0.4206284
0.1280548
0.07603358
0.602893
0.7183599
-2.264135
0.0518333
-11.92175
1.013868
-0.02021173
-26.93393
-0.008425505
0.03597825
-9.906618
-7.004838
0.3655561
0.2930802
1.036218
-0.002536913
0.4308433
-76.73344
26.26244
-4.549821
0.1363587
0.2026511
-35.90765
-0.05188748
1.112377
0.2628075
0.7506141
-2.009639
-0.758034
-0.1521415
-34.83008
-2.350582
20.87808
36.63428
0.2357419
1.466473
1.563267
0.9989765
-0.2507311
0.005750874
33.7831
-54.62316
-0.02451029
5.020043
0.4948766
0.6053649
0.03124772
0.05137593
1.654828
-0.9188835
0.8112396
-20.70708
-0.4609299
1.138768
0.1640961
-17.47672
-16.39704
-4.946606
0.03803886
-82.7764
26.33819
-6.514658
-1.297081
-6.539233
-2.713257
0.1822098
1.846906
32.13472
0.5624528
0.03652642
0.653203
-0.1631899
0.03822599
-64.78928
-0.02866599
0.005796399
0.2915363
0.3483234
19.08102
0.1995056
0.6243746
0.215824
0.01466469
0.3169437
18.66056
2.020914
4.588869
-42.11079
-25.90978
0.2177664
0.05592764
-7.229447
0.1177065
-43.11295
3.575933
0.13713
-1.245086
0.1813324
0.7472049
-18.13679
-1.129222
0.3910666
-0.7920796
0.02542537
0.3003212
-1.498896
-62.63475
-22.60064
-2.26635
2.847901
0.01553872
-0.03322702
1.234598
0.3298765
-0.7145129
-1.967969
-70.15158
0.7351166
-4.317962
-3.868973
-42.50899
1.328898
1.450004
-13.50179
2.588379
4.342619
0.501535
35.63438
0.001234791
-0.2968123
0.1293174
0.3198226
9.50107
-17.7145
-28.67728
14.48128
-0.1065879
0.4187124
-0.5747003
-0.4169877
0.07154912
-0.6874538
0.1579976
-0.0260195
-1.205588
-1.173861
0.04777666
0.6059311
11.65744
7.137495
0.1443914
-0.005204077
-3.573994
-3.110963
-0.02270379
1.599568
12.45975
-51.66216
-63.51973
0.4031917
0.09004341
-79.6773
43.35372
-94.28759
1.343475
0.05968708
3.965282
0.351897
9.30949
-27.92154
0.04503939
3.425149
-1.448883
1.506687
-0.3066172
0.08883347
-2.039549
-59.27948
2.268879
0.3295655
-2.92568
-0.1435394
-55.37435
-31.93257
-56.95923
0.5307263
15.36999
0.1200208
0.5380374
0.5029529
-1.156114
-64.3168
0.2668576
2.460378
33.16103
0.05716433
-0.1718067
-0.08281161
28.04223
7.703854
1.586508
2.023845
0.1519236
0.3286362
-0.1163201
-59.24797
0.1368552
-97.75364
-0.3759027
-1.223087
45.61813
0.6255113
-0.1155568
-0.01739958
1.869233
0.2482136
1.198405
-44.83866
41.95512
1.044588
-4.628383
46.26583