/*--------------------------------*- C++ -*----------------------------------*\
| =========                 |                                                 |
| \\      /  F ield         | OpenFOAM: The Open Source CFD Toolbox           |
|  \\    /   O peration     | Version:  2406                                  |
|   \\  /    A nd           | Website:  www.openfoam.com                      |
|    \\/     M anipulation  |                                                 |
\*---------------------------------------------------------------------------*/
FoamFile
{
    version     2.0;
    format      ascii;
    arch        "LSB;label=32;scalar=64";
    class       volVectorField;
    location    "4.86";
    object      U;
}
// * * * * * * * * * * * * * * * * * * * * * * * * * * * * * * * * * * * * * //

dimensions      [0 1 -1 0 0 0 0];

internalField   nonuniform List<vector> 
15536
(
(0.01916234 7.047414 -1.036981e-21)
(-0.2034398 6.781058 -9.662164e-19)
(-0.3543745 5.834417 -1.845739e-18)
(-0.3628668 4.08469 -1.725536e-18)
(-0.134725 1.463826 -2.570883e-20)
(0.3373788 -1.271772 1.256458e-20)
(0.9697844 -3.08851 2.519265e-20)
(1.57019 -4.491108 -2.45171e-20)
(1.624491 -4.404855 5.648105e-18)
(1.157724 -2.936987 5.080972e-18)
(0.6625296 -1.541866 0)
(0.1379059 -0.3420457 0)
(-0.4593024 0.7311489 -5.654552e-20)
(-1.138798 1.798121 1.505313e-17)
(-1.795519 2.710082 8.052288e-18)
(-2.331334 3.313824 -1.70818e-17)
(-2.627397 3.513192 8.445612e-18)
(-2.276516 2.965954 4.780528e-20)
(-0.8313331 1.217675 -8.00269e-20)
(1.850072 -1.647726 3.072924e-20)
(3.935471 -3.528787 0)
(2.999664 -2.636883 1.117786e-18)
(-0.01543069 -0.1757 0)
(-2.317269 1.586502 4.362645e-18)
(-3.629732 2.447364 -3.934205e-20)
(-4.411128 2.760436 -5.589572e-20)
(-5.514889 3.129252 5.442107e-20)
(-7.720595 3.942302 -1.028099e-17)
(-10.38892 4.886826 -1.580107e-17)
(-11.97482 5.398754 0)
(-6.644312 3.140869 -5.809298e-20)
(3.563365 -0.9605362 -5.692646e-18)
(3.756612 -1.409679 4.995366e-18)
(-2.297449 0.2135459 0)
(-3.773906 0.6912653 -8.335638e-18)
(-3.660577 0.5185951 -3.334067e-20)
(-0.3514115 0.04816025 4.117854e-18)
(6.505382 -0.1393105 -1.885778e-18)
(10.98829 0.1357837 1.835121e-21)
(13.32259 0.6241615 -4.647551e-19)
(14.50859 1.231932 1.876406e-18)
(15.18227 1.913016 -2.942316e-20)
(15.57468 2.606548 2.922003e-20)
(15.77514 3.293255 0)
(15.83145 3.967072 -7.21461e-18)
(15.75499 4.613985 -7.1203e-18)
(15.54024 5.226072 0)
(15.26441 5.81294 -1.344211e-17)
(14.92158 6.367553 1.305609e-17)
(14.54058 6.8956 1.257014e-17)
(14.10879 7.381806 4.568421e-20)
(13.62005 7.822315 -1.1385e-17)
(13.08202 8.211954 0)
(12.50359 8.552851 0)
(11.89414 8.84154 9.241131e-18)
(11.25118 9.069885 8.506737e-18)
(10.59364 9.249709 5.708204e-20)
(9.927724 9.379188 6.808872e-18)
(9.239542 9.438975 1.208764e-17)
(8.542319 9.438092 5.214498e-18)
(7.844204 9.3798 4.327702e-18)
(7.158863 9.273773 -3.084371e-20)
(6.482734 9.109827 0)
(5.813255 8.88107 1.769914e-18)
(5.164481 8.604744 0)
(4.531997 8.266792 -3.710209e-20)
(3.923855 7.874169 -2.853308e-20)
(3.351187 7.437536 -3.032971e-21)
(2.813251 6.954609 7.712244e-21)
(2.314128 6.429259 -3.103185e-18)
(1.859746 5.87046 -1.602804e-20)
(1.450766 5.276173 2.243047e-18)
(1.08881 4.649418 2.533374e-18)
(0.779243 4.007101 0)
(0.5213307 3.35323 0)
(0.3174116 2.685396 3.232847e-18)
(0.1649749 2.011239 -4.780846e-22)
(0.06706032 1.332718 9.003492e-19)
(0.02694653 0.6057049 1.680949e-21)
(0.03818206 -0.1871105 -7.238473e-21)
(0.09759447 -0.9591669 -1.81018e-18)
(0.2131515 -1.685307 0)
(0.3836492 -2.383828 3.352976e-18)
(0.6063495 -3.059954 0)
(0.8800489 -3.711783 -2.938876e-18)
(1.202303 -4.335656 2.665197e-18)
(1.572664 -4.930274 1.997923e-20)
(1.987586 -5.493693 4.267427e-18)
(2.443459 -6.015234 1.294624e-20)
(2.936322 -6.492778 -3.004589e-18)
(3.463547 -6.928668 -2.303804e-18)
(4.022314 -7.316903 1.478164e-20)
(4.610408 -7.659183 -8.059268e-19)
(5.220088 -7.95015 3.523869e-20)
(5.84417 -8.186685 8.765035e-21)
(6.472202 -8.356994 5.994386e-21)
(7.109119 -8.474484 -2.260283e-18)
(7.750563 -8.539143 0)
(8.388201 -8.543898 7.445746e-18)
(9.023884 -8.498861 4.399601e-18)
(9.638531 -8.390857 8.804449e-20)
(10.22826 -8.222453 -5.873442e-18)
(10.78875 -7.996754 0)
(11.31841 -7.718081 0)
(11.81596 -7.394174 0)
(12.27227 -7.023603 0)
(12.67717 -6.607964 8.630154e-18)
(13.026 -6.150561 9.113597e-18)
(13.32082 -5.658676 2.894024e-20)
(13.5377 -5.132641 -9.743752e-18)
(13.64779 -4.567851 -4.949016e-18)
(13.63127 -3.969558 -5.076369e-18)
(13.43424 -3.335664 3.960371e-20)
(12.97868 -2.674372 5.071601e-18)
(12.12689 -2.017896 2.564165e-18)
(10.44911 -1.365327 -1.975605e-20)
(7.156588 -0.7014273 -4.767203e-21)
(1.035865 -0.1070437 3.310063e-19)
(-3.593787 0.06883671 -7.073327e-19)
(-1.079999 0.2609145 -1.347399e-20)
(1.960727 0.4754313 8.291943e-21)
(3.460291 0.4536616 1.71243e-18)
(-4.973393 -1.485772 1.85559e-20)
(-10.38691 -2.822684 0)
(-9.057532 -2.576456 -5.384226e-18)
(-6.370429 -1.995718 -3.004376e-18)
(-3.987337 -1.417896 4.155608e-21)
(-2.612819 -1.039811 2.230057e-18)
(-1.345886 -0.5264555 -1.21677e-18)
(0.8840555 0.5657951 0)
(3.084321 1.7675 0)
(3.036157 1.770884 6.421091e-19)
(0.4868379 0.1380807 0)
(-1.51689 -1.259924 2.794764e-20)
(-1.647513 -1.358689 -4.246788e-18)
(-1.325325 -1.162298 -4.823776e-18)
(-1.109911 -1.028386 3.621755e-20)
(-1.305292 -1.359081 -8.773507e-18)
(-2.241367 -2.578272 -5.837987e-20)
(-2.497563 -3.03036 6.087688e-18)
(-1.765124 -2.220828 2.041431e-18)
(-0.860134 -1.116349 1.4464e-18)
(0.01566297 0.1506691 1.004937e-18)
(0.973431 1.753585 0)
(1.821931 3.371439 -9.249295e-21)
(2.423676 4.822863 -2.21469e-18)
(2.787217 6.074092 0)
(3.056558 7.308146 3.806483e-18)
(2.94865 7.660394 -3.561036e-20)
(2.18362 6.327119 1.946224e-20)
(1.288874 4.701298 3.115497e-18)
(0.8702053 4.266252 4.44533e-21)
(0.782048 4.583163 0)
(0.7460373 5.151913 1.863422e-18)
(0.6547181 5.787041 1.479477e-20)
(0.4905752 6.365183 3.897372e-21)
(0.2664305 6.802261 -4.859875e-21)
(-0.2847923 7.803646 -4.113072e-19)
(-0.5595707 8.034998 7.831983e-19)
(-0.7843129 8.07241 0)
(-0.8734269 7.569723 1.324714e-18)
(-0.6890255 5.767348 0)
(0.02637597 1.478691 4.658525e-18)
(1.235091 -3.875615 2.024845e-20)
(1.38433 -4.241136 -2.034839e-20)
(0.7643778 -2.697754 -4.720168e-18)
(0.388457 -1.626537 -4.235088e-18)
(0.2085405 -0.9520036 0)
(-0.1675964 -0.0337101 4.08797e-20)
(-0.6950547 0.923049 5.401172e-21)
(-1.232559 1.759397 -6.110096e-18)
(-1.773913 2.490227 -1.336832e-17)
(-2.323323 3.090542 6.97767e-18)
(-2.690877 3.407447 -6.830035e-18)
(-2.706366 3.409491 -4.929242e-20)
(-1.888412 2.597477 0)
(1.327276 -0.7194974 0)
(4.846464 -4.370337 0)
(3.013579 -3.120883 8.91778e-19)
(-0.07531972 -0.5932427 1.959971e-20)
(-1.82167 0.9595839 -2.030493e-20)
(-2.851527 1.751666 4.074764e-20)
(-3.421252 1.949456 -4.036056e-20)
(-4.24034 2.065074 0)
(-5.870404 2.477271 0)
(-8.278582 3.333432 2.626227e-17)
(-9.935245 4.201677 1.285901e-19)
(-9.335577 4.481054 -1.173189e-19)
(0.06971105 0.6969923 4.411878e-18)
(2.889937 -1.141417 4.188055e-18)
(2.285029 -0.996139 -4.811743e-20)
(2.611292 -0.6283338 -6.764997e-18)
(5.627567 -0.5929147 3.219883e-18)
(11.40704 -0.5839151 -6.027801e-22)
(17.19256 -0.6001739 1.235401e-18)
(19.20427 -0.3688832 0)
(19.64546 0.09649397 3.447256e-19)
(19.74933 0.7341995 2.833737e-18)
(19.71625 1.452794 2.903609e-18)
(19.58738 2.178376 2.903414e-18)
(19.38119 2.909071 -8.962886e-20)
(19.12021 3.642281 5.803385e-18)
(18.80952 4.362302 -4.399787e-20)
(18.46335 5.066002 0)
(18.04435 5.73094 1.071472e-17)
(17.57111 6.365099 0)
(17.05724 6.965803 -7.56557e-20)
(16.49541 7.519688 7.588641e-20)
(15.88158 8.023806 9.089249e-18)
(15.22283 8.471722 -6.406058e-20)
(14.52598 8.863803 7.994993e-18)
(13.7991 9.196027 -7.43249e-18)
(13.04536 9.465958 0)
(12.27532 9.682903 4.518739e-20)
(11.49575 9.842183 -5.584189e-18)
(10.70164 9.930188 -9.638526e-18)
(9.897561 9.949012 0)
(9.096259 9.909638 -3.473434e-18)
(8.306842 9.813524 -1.879061e-20)
(7.529689 9.652828 2.064321e-18)
(6.765672 9.42677 8.019943e-21)
(6.021753 9.14133 -8.115482e-21)
(5.301964 8.793232 3.010025e-20)
(4.609205 8.38671 6.447972e-19)
(3.954672 7.927179 0)
(3.339421 7.420355 0)
(2.768157 6.869648 -2.161271e-20)
(2.245101 6.277072 0)
(1.773432 5.645157 0)
(1.35485 4.979181 0)
(0.9939524 4.291576 -2.315365e-18)
(0.6896697 3.591706 1.873869e-20)
(0.4499252 2.87464 1.131909e-20)
(0.2662907 2.149797 -5.551772e-21)
(0.1461273 1.416443 -7.390792e-19)
(0.09931085 0.6325857 3.063472e-21)
(0.1127765 -0.2136735 -7.647003e-19)
(0.1790953 -1.04034 1.475861e-18)
(0.316185 -1.820056 1.13137e-20)
(0.5176038 -2.569311 -2.719822e-18)
(0.7783014 -3.294648 -4.049462e-20)
(1.097605 -3.994381 2.436077e-18)
(1.471506 -4.661491 -2.215463e-18)
(1.900927 -5.295334 0)
(2.378235 -5.895437 -6.96593e-18)
(2.901457 -6.446732 -2.128182e-20)
(3.468004 -6.951358 2.436905e-18)
(4.072168 -7.413476 1.876606e-18)
(4.71132 -7.82074 0)
(5.383515 -8.174857 0)
(6.080867 -8.479138 0)
(6.794682 -8.719032 6.641922e-21)
(7.519969 -8.890914 -6.599347e-21)
(8.256234 -9.004624 1.748677e-18)
(8.998059 -9.058692 4.826892e-21)
(9.741397 -9.049936 -3.009566e-18)
(10.48041 -8.983053 -6.647734e-20)
(11.20489 -8.853549 8.239311e-18)
(11.9068 -8.659179 4.653806e-18)
(12.58148 -8.402976 -3.814829e-20)
(13.23087 -8.091127 5.545342e-18)
(13.84988 -7.72876 4.547086e-20)
(14.43079 -7.311685 -5.201918e-20)
(14.96563 -6.84567 5.183154e-20)
(15.45073 -6.334286 5.695531e-20)
(15.88258 -5.782342 7.484086e-18)
(16.26691 -5.200648 -5.881065e-20)
(16.59606 -4.594321 0)
(16.87165 -3.968576 0)
(17.09668 -3.340684 0)
(17.24866 -2.712253 0)
(17.28303 -2.121061 1.451877e-20)
(17.05721 -1.629423 -1.434292e-20)
(15.95459 -1.254821 8.379508e-19)
(11.4524 -0.7452649 3.403927e-21)
(6.675464 -0.1071037 0)
(4.769821 0.5538647 -9.936955e-19)
(2.643035 0.5242105 1.438622e-18)
(0.8822192 -0.3121007 -1.341915e-18)
(-7.321562 -2.26021 4.094985e-20)
(-8.67719 -2.212905 -6.177212e-18)
(-6.663351 -1.451136 3.454146e-20)
(-4.024883 -0.8338186 0)
(-1.928362 -0.4303039 2.776739e-18)
(-1.029881 -0.2451014 -3.787159e-18)
(-0.2609979 0.1510695 -9.909993e-19)
(1.379964 1.101858 -7.562365e-21)
(3.57092 2.233287 1.096216e-20)
(3.166064 1.702382 -5.834466e-21)
(-0.5974354 -0.832942 0)
(-2.078956 -1.691339 2.382519e-18)
(-1.859203 -1.408198 3.431864e-18)
(-1.344575 -1.083068 -1.75483e-21)
(-1.005924 -0.9723775 -3.944813e-18)
(-1.929146 -2.132077 7.038348e-18)
(-3.105833 -3.559739 3.059741e-18)
(-2.760319 -3.190534 -2.659189e-21)
(-1.933782 -2.186656 -1.641497e-18)
(-0.9743476 -1.055633 -1.123777e-20)
(-0.06767461 0.3007003 -8.151233e-19)
(0.8972042 1.985444 8.077571e-21)
(1.751213 3.654942 3.023954e-21)
(2.352454 5.205672 -1.634582e-21)
(2.696627 6.545693 0)
(2.820651 7.600965 0)
(3.027927 8.807677 -3.64962e-18)
(3.04748 9.48242 0)
(2.642048 9.222814 -4.72457e-18)
(2.00236 8.428216 2.666961e-18)
(1.36652 7.472781 -2.289741e-20)
(0.8923091 6.920702 2.300884e-20)
(0.5591336 6.91448 1.569569e-18)
(0.2806306 7.20869 -8.193349e-19)
(-0.002018584 7.552842 -4.010296e-19)
(-0.09761739 7.897662 3.323222e-19)
(-0.354008 7.905593 -6.462372e-19)
(-0.5890587 7.842488 1.80659e-20)
(-0.7513506 7.733848 -1.103711e-18)
(-0.7408237 7.431981 0)
(-0.3098602 5.074556 -3.546728e-18)
(0.6698925 -0.5521835 -3.269693e-20)
(0.4191415 -1.441816 2.400553e-18)
(-0.6268561 0.8014574 3.998624e-18)
(-0.9587758 1.674475 3.508392e-18)
(-0.9110141 1.528583 3.606533e-18)
(-1.076327 1.611384 -2.930733e-20)
(-1.376559 1.947709 0)
(-1.632394 2.234312 0)
(-2.001667 2.666973 5.340103e-18)
(-2.479104 3.215009 5.748404e-18)
(-2.794645 3.607945 5.724616e-18)
(-2.668784 3.559187 8.106864e-20)
(-1.937696 3.037314 0)
(0.2391557 0.9722604 1.72795e-18)
(4.164411 -3.472997 1.10555e-18)
(2.524019 -3.071848 -7.225904e-19)
(0.2671105 -1.248461 0)
(-0.5909489 -0.1074708 2.978258e-18)
(-1.041923 0.4847203 0)
(-1.049297 0.4888419 -4.800888e-18)
(-1.240671 0.3573251 0)
(-2.746105 0.659367 -7.354656e-18)
(-5.121839 1.699211 -2.238788e-17)
(-6.154435 2.792261 0)
(-7.156354 4.137675 0)
(-1.4532 1.755687 1.464579e-20)
(6.158058 -1.674537 -3.232554e-18)
(11.04553 -2.531482 4.104011e-18)
(13.08754 -2.043425 9.250923e-18)
(15.64186 -1.424127 -2.211245e-18)
(18.41425 -0.8407625 1.977869e-18)
(19.62971 -0.458237 -9.904014e-19)
(19.21217 -0.03419226 0)
(19.12143 0.5913031 0)
(19.14208 1.322083 -2.360215e-18)
(19.1199 2.079191 -2.435922e-18)
(19.02439 2.835631 -4.746794e-18)
(18.85401 3.576026 4.68232e-18)
(18.62605 4.304465 1.096227e-19)
(18.33793 5.000326 -7.254691e-20)
(17.97845 5.672019 0)
(17.55516 6.301377 0)
(17.07884 6.90072 8.397016e-18)
(16.56406 7.467845 -8.094574e-18)
(16.00502 7.984535 0)
(15.39626 8.451646 0)
(14.74596 8.861555 1.051728e-19)
(14.05893 9.217981 -6.66529e-18)
(13.34495 9.514196 0)
(12.60738 9.74725 -5.468979e-18)
(11.85435 9.930148 -4.96287e-18)
(11.09476 10.05647 -4.377783e-18)
(10.32455 10.1108 3.880128e-18)
(9.544184 10.09878 -4.79459e-20)
(8.767673 10.03192 2.80529e-18)
(8.003811 9.910854 0)
(7.254847 9.725931 -1.685178e-18)
(6.520461 9.477549 -1.277841e-20)
(5.804235 9.173944 8.855797e-21)
(5.11778 8.806543 -3.574972e-20)
(4.455671 8.384808 0)
(3.830876 7.912586 -1.120355e-18)
(3.243818 7.39586 -1.441948e-20)
(2.701454 6.83682 2.106002e-18)
(2.204293 6.238657 1.288741e-18)
(1.757138 5.602718 -1.503914e-18)
(1.360104 4.934478 -1.706134e-18)
(1.017238 4.245919 1.884832e-18)
(0.7274032 3.54683 -2.055237e-18)
(0.5037274 2.830778 -1.070474e-18)
(0.3289153 2.109664 2.289438e-18)
(0.2167965 1.383363 1.209554e-18)
(0.1802157 0.6102982 2.481959e-21)
(0.1973171 -0.2187299 6.329797e-19)
(0.2568498 -1.033975 -9.558605e-21)
(0.3876519 -1.804455 0)
(0.5795833 -2.546621 -1.718137e-20)
(0.8261002 -3.266665 -1.534378e-20)
(1.128424 -3.962259 -1.925692e-18)
(1.481037 -4.627249 3.637953e-18)
(1.890149 -5.259871 -1.645585e-18)
(2.342127 -5.862416 2.822293e-18)
(2.837659 -6.418582 2.071482e-20)
(3.378246 -6.929395 0)
(3.953781 -7.401562 1.57388e-18)
(4.563732 -7.821034 1.312951e-20)
(5.208328 -8.188808 -6.252408e-19)
(5.875979 -8.511488 0)
(6.560359 -8.771777 3.984933e-19)
(7.260027 -8.964157 0)
(7.971428 -9.10123 -4.444778e-20)
(8.688487 -9.181485 1.884399e-18)
(9.410832 -9.198889 0)
(10.12849 -9.162014 -2.902799e-18)
(10.83385 -9.064185 -3.373806e-18)
(11.51903 -8.902477 -3.814735e-18)
(12.17915 -8.67921 0)
(12.81779 -8.39923 -9.253973e-18)
(13.42816 -8.069839 7.4549e-20)
(14.00325 -7.684599 0)
(14.53529 -7.250579 0)
(15.02015 -6.768826 0)
(15.45623 -6.247611 6.04452e-18)
(15.83739 -5.69389 -6.242143e-18)
(16.15429 -5.104545 0)
(16.40082 -4.484087 0)
(16.58817 -3.835761 3.189448e-18)
(16.71071 -3.180293 2.52159e-20)
(16.78444 -2.53165 0)
(16.82666 -1.944492 0)
(17.24775 -1.585694 -1.347333e-18)
(16.6216 -1.179927 1.635877e-19)
(14.75992 -0.3207528 0)
(12.95386 0.5159359 6.95562e-19)
(8.852537 0.6964118 2.321546e-20)
(0.6345123 -0.8126612 8.76608e-22)
(-5.716731 -2.333199 -2.289471e-20)
(-4.861712 -1.42383 5.370613e-18)
(-3.773062 -0.4359586 3.794935e-18)
(-1.316382 0.3350861 4.71142e-20)
(0.7278732 0.6683237 1.481422e-20)
(1.46649 0.7785813 1.522793e-18)
(1.582822 1.0332 7.981259e-19)
(2.039706 1.61401 0)
(3.15644 2.053401 -8.407986e-19)
(2.108053 0.7369552 0)
(-1.220036 -1.5822 -2.02204e-20)
(-2.216938 -1.907643 -1.922444e-18)
(-2.28537 -1.70875 4.726867e-20)
(-1.855455 -1.450675 -4.74362e-20)
(-1.422269 -1.441082 3.230005e-18)
(-2.222459 -2.636091 -2.831562e-18)
(-3.159005 -3.704428 -2.510042e-18)
(-2.71747 -3.057677 -2.051636e-18)
(-2.027891 -2.061446 -1.318325e-18)
(-1.016309 -0.8648293 0)
(-0.1435748 0.5147331 -6.487867e-21)
(0.7992608 2.206468 0)
(1.674642 3.844307 -9.895039e-19)
(2.290661 5.328407 1.450728e-18)
(2.689462 6.640039 0)
(2.900597 7.705568 0)
(2.984971 8.513584 6.016515e-18)
(3.012103 9.353493 -1.707155e-18)
(2.829036 9.951402 3.825061e-18)
(2.373996 9.910762 -1.699621e-20)
(1.803172 9.281168 1.729307e-20)
(1.247197 8.503963 0)
(0.7942554 7.977495 -1.270773e-18)
(0.452583 7.794581 1.310001e-18)
(0.1695388 7.823728 3.330282e-19)
(-0.2375533 8.025033 -5.475655e-19)
(-0.504458 7.91951 -1.614851e-20)
(-0.6861974 7.709009 1.597586e-20)
(-0.7607821 7.385832 -2.691174e-20)
(-0.6599384 7.287569 2.600126e-20)
(-0.3959834 6.974703 1.402335e-18)
(-0.05997132 3.899596 -2.502339e-20)
(-0.851151 2.915142 -1.876405e-18)
(-1.657428 3.33538 5.179274e-20)
(-1.905974 3.777441 -2.706101e-18)
(-2.107557 4.271577 -4.996444e-20)
(-2.291337 4.277751 0)
(-2.37165 3.871764 0)
(-2.344739 3.397489 -4.020299e-18)
(-2.469466 3.259526 -4.423482e-18)
(-2.770939 3.496174 -9.395746e-18)
(-2.958205 3.766486 -4.693886e-18)
(-2.71456 3.730591 0)
(-1.775382 3.18116 0)
(-0.3802325 2.255261 -2.832466e-18)
(2.919128 -1.847631 -1.804712e-18)
(1.91998 -2.769606 1.330239e-20)
(1.041252 -2.088901 -3.910205e-20)
(1.198078 -1.454127 -4.797348e-18)
(1.548966 -1.196705 -3.404297e-18)
(2.169333 -1.432466 3.922937e-18)
(1.787552 -1.492314 4.402438e-18)
(0.1308494 -1.183928 5.862841e-18)
(-1.859705 -0.1596363 9.812616e-18)
(-2.866402 1.320471 0)
(-2.959096 3.032847 -1.248657e-19)
(0.6203315 1.828259 -5.319963e-18)
(11.48327 -2.250374 3.638136e-20)
(16.74128 -3.35959 5.241048e-21)
(18.33233 -2.874603 -3.473494e-18)
(19.3993 -1.931113 -1.659529e-18)
(19.59046 -1.088464 -4.45974e-20)
(19.08631 -0.6816216 -8.241521e-19)
(18.9174 -0.3834031 -4.383433e-19)
(19.13851 0.143798 -3.584046e-21)
(19.26289 0.7967505 0)
(19.29664 1.512219 -3.036191e-20)
(19.23024 2.244364 1.9954e-18)
(19.07779 2.97197 -7.743751e-18)
(18.85724 3.707915 5.905936e-20)
(18.57291 4.416382 -3.769755e-18)
(18.21996 5.102621 -1.126262e-19)
(17.80291 5.74673 -7.060281e-18)
(17.33039 6.365345 2.497557e-21)
(16.81823 6.957047 6.676456e-18)
(16.26269 7.49507 -6.27888e-18)
(15.6563 7.986219 0)
(15.00759 8.419355 8.51244e-20)
(14.32012 8.801287 -8.567974e-20)
(13.60351 9.124507 0)
(12.86111 9.38558 4.505586e-18)
(12.102 9.596233 7.758357e-20)
(11.33491 9.750251 3.660209e-18)
(10.55711 9.83099 -3.131565e-18)
(9.770662 9.841649 -2.674939e-18)
(8.984007 9.79916 -2.268982e-18)
(8.210771 9.70081 -1.765292e-18)
(7.452885 9.536693 1.698787e-20)
(6.708326 9.308191 -1.715532e-20)
(5.981551 9.023739 0)
(5.28416 8.67425 3.275997e-20)
(4.610445 8.269371 -1.11091e-20)
(3.974828 7.812123 9.316944e-19)
(3.377126 7.309003 1.333166e-18)
(2.826641 6.761424 -1.724485e-18)
(2.321203 6.173565 -1.057942e-18)
(1.866196 5.546478 -5.413645e-21)
(1.461322 4.885639 1.399963e-18)
(1.113388 4.202076 2.506827e-20)
(0.8175502 3.507056 1.64767e-18)
(0.5922139 2.792719 1.421672e-20)
(0.4149732 2.073013 -9.57168e-19)
(0.303474 1.351104 -4.931016e-19)
(0.2758922 0.5872195 -6.212776e-23)
(0.29677 -0.2207223 5.019518e-19)
(0.3514997 -1.025069 7.827351e-21)
(0.4788185 -1.787934 -9.623765e-19)
(0.6707615 -2.522624 1.843787e-18)
(0.9181493 -3.234184 0)
(1.222562 -3.920509 -2.239525e-21)
(1.577518 -4.575873 -1.495363e-18)
(1.991736 -5.198361 1.388486e-18)
(2.447216 -5.791316 -2.416098e-18)
(2.950483 -6.335075 2.919299e-20)
(3.500781 -6.832705 -2.892729e-20)
(4.081786 -7.293356 -1.29348e-18)
(4.700494 -7.698101 0)
(5.358042 -8.048453 5.08311e-19)
(6.033348 -8.356229 -3.288678e-21)
(6.726485 -8.598904 -4.137539e-20)
(7.436271 -8.771901 -6.75541e-19)
(8.156045 -8.890001 -1.153226e-18)
(8.88076 -8.950194 -2.570532e-20)
(9.61039 -8.946307 1.893858e-18)
(10.33609 -8.886214 -3.29195e-20)
(11.04724 -8.765714 -2.665718e-18)
(11.73772 -8.579718 0)
(12.40406 -8.329976 3.363482e-18)
(13.04642 -8.025914 3.754306e-18)
(13.65728 -7.67546 3.912655e-18)
(14.23194 -7.269186 -4.186512e-18)
(14.76188 -6.816402 4.49779e-18)
(15.24448 -6.316997 0)
(15.67829 -5.779177 -9.886214e-18)
(16.05521 -5.217528 1.029544e-17)
(16.36846 -4.620384 -1.214228e-19)
(16.61303 -3.994027 -2.612432e-18)
(16.78329 -3.357246 -2.615559e-18)
(16.86528 -2.725216 0)
(16.85099 -2.129674 1.288211e-18)
(16.70998 -1.603292 -1.230887e-18)
(16.72336 -1.315673 5.693948e-19)
(17.1598 -1.038239 -1.401435e-19)
(17.09653 -0.2175578 -2.865197e-19)
(16.39164 0.5085347 8.607819e-21)
(13.68759 0.4804154 -7.457338e-19)
(3.746088 -1.12356 -2.443653e-20)
(-2.28373 -2.049743 0)
(-1.467131 -0.5919972 0)
(-0.3986338 0.7681125 -7.832921e-20)
(1.613849 1.618472 7.563069e-20)
(3.250734 1.794793 0)
(3.847308 1.765341 0)
(3.607084 1.905163 0)
(3.058575 2.153054 -2.044792e-19)
(2.718785 1.704783 1.448789e-18)
(1.139103 -0.276667 -3.444504e-19)
(-1.354412 -2.013276 -5.996721e-19)
(-2.392875 -2.126204 -4.802881e-20)
(-2.720892 -2.028614 2.326744e-18)
(-2.519256 -1.987683 2.675605e-18)
(-2.113529 -2.179635 3.929302e-20)
(-2.503722 -3.111349 -3.599431e-21)
(-3.110528 -3.683969 -3.446393e-20)
(-2.752609 -2.928489 -2.175786e-20)
(-2.10463 -1.850756 1.116668e-18)
(-1.068801 -0.6336858 0)
(-0.2420114 0.7511107 5.396181e-19)
(0.6592753 2.43555 -5.48398e-19)
(1.540409 4.029198 8.150171e-19)
(2.157672 5.46483 0)
(2.549269 6.728549 0)
(2.766541 7.798172 -3.474742e-20)
(2.83866 8.607503 -2.462035e-18)
(2.827434 9.210959 1.470029e-18)
(2.683157 9.734868 -1.586948e-18)
(2.391047 9.985361 0)
(1.955039 9.774045 0)
(1.411159 9.237081 0)
(0.88098 8.683556 -1.014506e-18)
(0.4429261 8.306357 -5.549419e-19)
(0.08113675 8.116215 -5.478452e-19)
(-0.1344394 8.111446 2.255418e-19)
(-0.3622276 7.93309 0)
(-0.5385745 7.656806 -8.171937e-19)
(-0.635622 7.24598 0)
(-0.5437215 6.833756 -1.334264e-18)
(-0.3351739 7.145454 0)
(-0.5198073 6.379052 0)
(-1.548283 5.634878 -1.384713e-18)
(-2.19214 4.956823 -2.4456e-18)
(-2.242157 4.517929 2.233085e-18)
(-2.403991 4.737324 -2.278934e-18)
(-2.770931 5.215702 2.496332e-18)
(-3.084306 5.360619 0)
(-3.079976 4.847268 6.527934e-18)
(-3.02056 4.173479 3.605401e-18)
(-3.112061 3.932365 3.963886e-18)
(-3.128414 3.993067 -1.221673e-19)
(-2.713813 3.917832 -8.720014e-20)
(-1.642318 3.317901 -2.157713e-18)
(-0.3789882 2.821416 2.376327e-18)
(1.706121 -0.1153444 7.274534e-19)
(1.482053 -2.308339 2.216459e-20)
(2.22393 -2.986397 8.562678e-19)
(3.420011 -2.922305 1.943403e-18)
(4.476165 -2.957241 2.660307e-18)
(5.176011 -3.196552 0)
(4.748082 -3.313548 9.280896e-21)
(3.477649 -3.250706 0)
(2.052771 -2.331158 7.654856e-18)
(1.162157 -0.3776731 1.209877e-17)
(1.367982 1.711428 8.903736e-18)
(5.423733 1.325483 -2.291709e-19)
(15.65532 -2.344106 5.876516e-20)
(18.179 -3.344149 -4.669615e-18)
(18.73496 -2.954555 0)
(19.19858 -1.973744 -1.304469e-18)
(18.87952 -1.050306 -1.388881e-18)
(18.57775 -0.5139568 1.387555e-18)
(18.68039 -0.0483638 3.458648e-19)
(18.84869 0.5715535 0)
(18.94814 1.261731 7.773802e-19)
(18.96912 1.986984 0)
(18.89986 2.703068 0)
(18.745 3.41336 3.236976e-18)
(18.52564 4.130621 -4.904168e-20)
(18.24431 4.812184 5.072479e-20)
(17.89424 5.468164 -2.963462e-18)
(17.484 6.077374 5.92888e-18)
(17.01834 6.661902 -5.637685e-18)
(16.51587 7.222423 -5.425796e-18)
(15.97632 7.719111 2.460983e-19)
(15.38356 8.17667 -1.570343e-19)
(14.75234 8.573705 -1.383722e-19)
(14.08163 8.925153 -3.980844e-18)
(13.38436 9.219567 -4.056572e-18)
(12.66207 9.452058 -1.072454e-19)
(11.9208 9.640556 3.412988e-18)
(11.17662 9.771849 0)
(10.42355 9.829901 2.578875e-18)
(9.655683 9.825077 2.202223e-18)
(8.888646 9.769177 1.766922e-18)
(8.137523 9.658875 1.452641e-18)
(7.40084 9.485422 0)
(6.677454 9.248169 0)
(5.968396 8.960084 2.848663e-19)
(5.291713 8.60611 0)
(4.632963 8.201148 0)
(4.013914 7.744545 8.299343e-19)
(3.433775 7.242596 -1.100376e-20)
(2.894257 6.699329 -1.599529e-20)
(2.397264 6.116078 -2.946214e-20)
(1.951035 5.493598 2.068974e-18)
(1.555169 4.836967 0)
(1.216446 4.156836 0)
(0.9172784 3.46781 1.396345e-18)
(0.6962317 2.75474 7.093791e-19)
(0.5188731 2.035361 7.726994e-19)
(0.4080107 1.317384 -4.038321e-19)
(0.3899033 0.5621645 0)
(0.4161987 -0.2182354 -4.297193e-22)
(0.4651644 -1.011366 2.526152e-20)
(0.5822627 -1.766639 7.636982e-19)
(0.7688089 -2.491578 -1.51145e-18)
(1.011949 -3.193246 -4.36522e-20)
(1.312359 -3.871103 1.342048e-18)
(1.662851 -4.518711 3.992399e-20)
(2.072308 -5.134472 2.2299e-18)
(2.51495 -5.723858 -1.068194e-20)
(3.005177 -6.26402 -1.741753e-18)
(3.546957 -6.758891 4.799075e-20)
(4.114188 -7.220144 0)
(4.713309 -7.627411 7.878934e-19)
(5.357022 -7.980094 0)
(6.018283 -8.29269 0)
(6.689699 -8.544857 -2.36985e-19)
(7.380186 -8.72707 1.09468e-18)
(8.0831 -8.855458 3.271743e-20)
(8.78769 -8.929511 -7.966955e-20)
(9.49776 -8.940873 -1.55407e-18)
(10.20341 -8.900132 -1.827257e-18)
(10.89482 -8.800687 2.269137e-18)
(11.56443 -8.639791 -2.502669e-18)
(12.20955 -8.41828 -6.496006e-20)
(12.83492 -8.14062 0)
(13.42824 -7.821621 -3.38723e-18)
(13.98745 -7.446632 7.161601e-18)
(14.50306 -7.028542 -3.825857e-18)
(14.97207 -6.565155 0)
(15.3971 -6.060365 7.961356e-20)
(15.76717 -5.528047 -4.12112e-18)
(16.07444 -4.95701 -6.563562e-20)
(16.31454 -4.352594 1.091462e-19)
(16.48263 -3.732676 -6.70262e-20)
(16.5731 -3.101447 0)
(16.57622 -2.482151 -2.052341e-18)
(16.494 -1.903393 9.59524e-19)
(16.36441 -1.459943 4.579168e-19)
(16.56266 -1.035936 -7.081453e-21)
(16.68234 -0.2225534 2.328327e-19)
(16.36232 0.3840815 4.139081e-19)
(16.06512 0.04872185 0)
(8.678671 -1.434708 5.875599e-19)
(2.323768 -1.547621 -9.163478e-20)
(2.210693 0.4384978 4.096588e-18)
(3.498608 2.190613 0)
(4.868962 2.972995 0)
(5.924904 2.921671 0)
(6.214084 2.699825 1.146076e-20)
(5.625473 2.688324 4.910732e-19)
(4.312365 2.624153 1.879711e-19)
(2.574397 1.316503 -6.135581e-19)
(0.6837205 -1.000851 5.412878e-19)
(-1.2672 -2.26891 5.017595e-19)
(-2.467661 -2.323317 0)
(-3.050473 -2.326204 -1.917621e-18)
(-3.086149 -2.490688 -2.150544e-18)
(-2.741771 -2.832311 2.189905e-18)
(-2.751072 -3.479813 -6.136172e-20)
(-3.072012 -3.617717 -4.829108e-20)
(-2.835421 -2.830401 4.800869e-20)
(-2.237831 -1.641608 0)
(-1.181841 -0.3881734 -6.594871e-19)
(-0.3961871 0.9747771 1.437027e-20)
(0.4512904 2.642357 8.917065e-19)
(1.32832 4.162815 -6.894391e-19)
(1.961665 5.524213 6.056673e-20)
(2.378167 6.746076 -1.320481e-18)
(2.635782 7.795883 0)
(2.770477 8.615043 -1.975094e-18)
(2.784592 9.179704 1.19563e-18)
(2.623278 9.566519 -8.081829e-20)
(2.353011 9.776307 1.490469e-18)
(1.987074 9.719923 -6.946897e-20)
(1.513932 9.39694 2.419794e-20)
(1.001384 8.955517 8.442478e-19)
(0.5388086 8.562022 -6.947863e-21)
(0.1617019 8.290195 8.059175e-21)
(-0.1403563 8.133975 1.135018e-20)
(-0.381126 7.92114 3.446158e-19)
(-0.5271317 7.605412 6.721667e-19)
(-0.5755845 7.165678 -6.163689e-19)
(-0.4775393 6.615596 1.112447e-18)
(-0.2676575 6.626492 0)
(-0.6467086 6.711739 9.503383e-19)
(-1.6256 6.140513 1.192461e-18)
(-2.134501 5.029225 2.048982e-18)
(-2.072949 4.137664 0)
(-2.193855 4.040273 0)
(-2.633488 4.65292 -2.059435e-18)
(-3.165757 5.363903 -7.807558e-20)
(-3.378407 5.464314 -2.602924e-18)
(-3.362467 4.86795 -2.969864e-18)
(-3.392607 4.393374 -3.188562e-18)
(-3.314947 4.314704 3.248417e-18)
(-2.723471 4.191273 -2.653728e-18)
(-1.523628 3.514818 1.721723e-18)
(-0.05678388 2.920541 -9.515417e-19)
(1.029883 1.114806 0)
(1.506728 -1.898813 0)
(3.767805 -3.849255 -7.355666e-19)
(5.781175 -4.310488 0)
(7.226539 -4.541973 -6.814969e-20)
(7.929335 -4.822697 -1.156815e-20)
(7.703828 -5.094865 -2.462395e-18)
(6.996386 -5.386811 -9.544061e-20)
(6.304108 -4.674981 -3.01057e-20)
(5.604334 -2.345192 -9.067544e-18)
(6.396206 0.3706671 -2.547419e-20)
(11.45379 0.566386 1.60405e-18)
(17.76059 -2.075982 -4.891948e-20)
(17.50948 -3.008186 2.028706e-18)
(18.06211 -2.773994 -6.567854e-20)
(18.60284 -1.913991 4.548957e-18)
(18.55419 -1.136369 3.541985e-20)
(18.56701 -0.6779082 -6.918541e-21)
(18.71074 -0.2752436 -5.884845e-19)
(18.87446 0.2698805 -4.775176e-21)
(18.97905 0.9029866 -6.408544e-19)
(18.99901 1.599396 -4.017786e-20)
(18.92839 2.311136 -1.238463e-18)
(18.77197 3.013799 2.531248e-18)
(18.55309 3.739702 -2.496078e-18)
(18.28037 4.419374 4.770624e-18)
(17.93438 5.098386 2.594303e-18)
(17.52624 5.723153 0)
(17.05978 6.326337 0)
(16.55856 6.908358 4.39972e-18)
(16.02042 7.424311 4.196481e-18)
(15.42833 7.90018 0)
(14.80054 8.309027 -1.113832e-19)
(14.13011 8.675362 3.609793e-18)
(13.42998 8.990155 3.232885e-18)
(12.70872 9.235159 2.867666e-18)
(11.97368 9.429597 -7.745678e-20)
(11.23138 9.574214 -2.236714e-18)
(10.47517 9.649464 5.871046e-20)
(9.711903 9.651109 -5.927315e-20)
(8.953288 9.599321 -1.492269e-18)
(8.204895 9.499176 1.146447e-18)
(7.463918 9.341829 0)
(6.748415 9.109364 0)
(6.041671 8.831921 -4.323323e-19)
(5.373614 8.484415 -9.296481e-21)
(4.719428 8.088465 -8.940763e-21)
(4.116045 7.636567 -6.402736e-19)
(3.543746 7.142398 -1.846047e-18)
(2.995976 6.615994 1.115849e-18)
(2.500999 6.044179 -1.41364e-18)
(2.059719 5.431212 -8.100435e-19)
(1.674171 4.781217 -2.81068e-20)
(1.343587 4.104321 0)
(1.035506 3.426263 -1.089863e-18)
(0.8254717 2.717017 -3.661934e-20)
(0.6439409 1.997486 -6.428343e-19)
(0.5332575 1.284388 3.461469e-19)
(0.5250048 0.5363326 5.486855e-23)
(0.5575289 -0.2119404 -3.573218e-19)
(0.593068 -0.9959896 3.113225e-20)
(0.7072453 -1.739994 -6.650245e-19)
(0.8875891 -2.450759 1.237426e-18)
(1.12582 -3.14207 -1.213379e-18)
(1.422341 -3.811839 2.168775e-21)
(1.767949 -4.450303 1.046167e-18)
(2.181227 -5.055373 -1.774055e-18)
(2.614889 -5.639562 1.602994e-18)
(3.094142 -6.174662 1.302322e-18)
(3.636527 -6.66079 7.185749e-21)
(4.210022 -7.110246 7.611726e-21)
(4.800852 -7.511433 -6.224484e-19)
(5.428085 -7.865589 4.128534e-19)
(6.088827 -8.170181 3.809705e-22)
(6.758324 -8.413148 1.305287e-19)
(7.440728 -8.589574 -8.44259e-19)
(8.135751 -8.714513 6.757139e-19)
(8.844532 -8.772108 -4.794301e-20)
(9.551494 -8.774487 -1.22691e-18)
(10.24971 -8.730178 2.99386e-18)
(10.94103 -8.618453 5.789665e-20)
(11.60778 -8.447943 1.942466e-18)
(12.25321 -8.211393 -2.301759e-18)
(12.88047 -7.917963 7.168602e-20)
(13.47304 -7.586332 -2.657751e-18)
(14.03318 -7.193302 -2.744926e-18)
(14.54868 -6.758985 9.465609e-20)
(15.0197 -6.272441 -3.157875e-18)
(15.44511 -5.746328 3.269579e-18)
(15.8153 -5.194987 0)
(16.12049 -4.610422 0)
(16.35788 -4.006375 1.74606e-18)
(16.52882 -3.389469 1.709947e-18)
(16.6191 -2.78566 0)
(16.61509 -2.213176 8.776747e-19)
(16.52881 -1.699792 7.778308e-19)
(16.38937 -1.311118 -3.871363e-19)
(16.35837 -0.9369096 8.90274e-20)
(16.30674 -0.2588626 1.868069e-19)
(15.63622 0.2773212 -3.446561e-19)
(16.42784 -0.3248008 0)
(13.3504 -1.655323 4.382151e-20)
(8.283277 -1.115711 -4.886127e-20)