/*--------------------------------*- C++ -*----------------------------------*\
| =========                 |                                                 |
| \\      /  F ield         | OpenFOAM: The Open Source CFD Toolbox           |
|  \\    /   O peration     | Version:  2406                                  |
|   \\  /    A nd           | Website:  www.openfoam.com                      |
|    \\/     M anipulation  |                                                 |
\*---------------------------------------------------------------------------*/
FoamFile
{
    version     2.0;
    format      ascii;
    arch        "LSB;label=32;scalar=64";
    class       surfaceScalarField;
    location    "0.08";
    object      phi;
}
// * * * * * * * * * * * * * * * * * * * * * * * * * * * * * * * * * * * * * //

dimensions      [0 3 -1 0 0 0 0];

oriented        oriented;

internalField   nonuniform List<scalar> 
6709
(
-1.794858e-09
1.007102e-09
7.877559e-10
1.597132e-09
-5.473852e-10
-1.049747e-09
-1.621206e-09
-6.076136e-11
1.681967e-09
3.691101e-09
2.605887e-10
-3.951689e-09
1.198506e-09
4.424721e-10
-1.640978e-09
1.136789e-09
-2.029298e-09
8.92509e-10
1.673872e-09
-8.345546e-10
3.253318e-09
-2.963345e-09
-2.899732e-10
1.588877e-09
-1.211495e-09
-3.773821e-10
-2.047003e-09
7.544472e-10
1.292556e-09
-9.202997e-10
-8.134475e-10
1.733747e-09
5.671379e-10
1.134217e-09
-1.701355e-09
-1.923168e-09
7.496976e-10
1.173471e-09
-3.678114e-10
-1.075882e-09
1.443694e-09
-1.327442e-09
1.546232e-10
1.172818e-09
1.646389e-09
-1.044604e-09
-6.01785e-10
-3.727084e-09
7.751418e-10
2.951943e-09
-1.083498e-09
1.90945e-09
-8.259526e-10
-1.208722e-09
9.621631e-10
2.465589e-10
9.237579e-10
1.101749e-09
-2.025507e-09
-1.208371e-09
-3.460214e-10
1.554392e-09
1.702656e-09
-7.846786e-11
-1.624188e-09
-7.90244e-10
1.325085e-09
-5.348407e-10
8.498002e-10
1.057634e-09
-1.907434e-09
-2.282604e-09
1.547158e-09
7.354467e-10
6.421481e-10
7.042005e-10
-1.346349e-09
1.02574e-09
-1.794244e-09
7.685049e-10
-2.750645e-10
-1.382679e-09
1.657743e-09
-9.40016e-11
-1.748569e-09
1.84257e-09
1.612141e-09
-7.77875e-10
-8.342655e-10
1.576481e-09
-6.427495e-10
-9.33731e-10
-9.80378e-10
-1.086989e-09
2.067367e-09
1.519306e-09
-1.574157e-09
5.485025e-11
-1.714425e-09
8.058045e-10
9.086207e-10
1.342556e-09
3.038327e-10
-1.093868e-09
1.793126e-09
1.3023e-09
-4.271567e-10
-8.751431e-10
-4.761882e-10
-1.196615e-09
1.672803e-09
-1.951426e-09
7.139329e-10
1.237493e-09
6.894112e-10
1.165647e-09
-1.855058e-09
-1.650076e-09
6.002483e-10
1.049828e-09
-6.010825e-10
1.686737e-09
-1.085654e-09
-1.086437e-09
-1.307881e-10
1.217225e-09
1.407227e-09
1.241696e-10
-1.531397e-09
1.234775e-09
-2.333391e-09
1.098617e-09
-8.733252e-10
1.562707e-09
-6.893822e-10
1.152142e-09
-7.964444e-10
-3.556979e-10
1.231718e-09
-1.452504e-09
2.207861e-10
-1.399765e-09
8.068089e-11
1.319084e-09
1.194912e-09
3.554318e-10
-1.550344e-09
-1.401611e-09
1.492478e-09
-9.086743e-11
-8.075759e-10
-7.8556e-10
1.593136e-09
-1.240966e-09
3.149616e-11
1.20947e-09
1.359205e-09
-1.633824e-09
2.746193e-10
-1.997965e-09
9.395723e-10
1.058393e-09
-1.551079e-09
1.505838e-09
4.524018e-11
8.646074e-10
-1.638904e-09
7.742965e-10
1.939767e-09
-8.128868e-10
-1.12688e-09
1.755953e-09
-8.918877e-10
-8.640656e-10
-2.708806e-10
-1.17279e-09
1.44367e-09
8.506496e-11
-1.471215e-09
1.38615e-09
-1.007972e-09
-6.522726e-10
1.660244e-09
6.901995e-10
9.778888e-10
-1.668088e-09
-1.139545e-09
-8.509797e-10
1.990525e-09
1.598691e-09
-1.550391e-09
-4.829984e-11
-1.713778e-09
7.058067e-10
-7.794603e-10
1.546091e-09
-7.666309e-10
-1.061676e-09
-1.325882e-09
2.387558e-09
3.723489e-10
1.174253e-09
-1.546602e-09
-1.807758e-09
1.154385e-09
6.533731e-10
1.822993e-09
-1.044344e-09
-7.78649e-10
-7.873251e-10
-6.049154e-10
1.392241e-09
7.658812e-10
1.07131e-09
-1.837191e-09
-6.735889e-09
8.445685e-09
-1.709797e-09
7.321167e-10
-1.776721e-09
-1.721348e-10
1.212306e-09
-1.040171e-09
1.860962e-09
-2.224887e-09
3.639255e-10
1.151852e-09
-1.15225e-09
3.985448e-13
6.344669e-10
-1.415778e-09
7.813115e-10
3.426661e-09
-3.365974e-09
-6.068688e-11
1.800069e-09
-8.729382e-10
1.308905e-09
5.119301e-10
-1.820835e-09
-1.576854e-09
2.00128e-09
-4.244257e-10
-1.998134e-09
1.004376e-09
9.937573e-10
1.658055e-09
-6.317386e-10
-1.026316e-09
-1.630379e-09
1.061668e-09
5.687104e-10
2.084607e-09
-1.084634e-09
-9.999731e-10
-1.447121e-09
9.53848e-10
4.932731e-10
-2.035071e-09
3.852628e-10
1.649808e-09
6.826725e-10
9.581174e-10
-1.64079e-09
1.768413e-10
1.183186e-09
-1.360028e-09
1.61205e-09
-6.72121e-10
-9.399294e-10
1.248723e-09
1.992226e-10
-1.447946e-09
1.049524e-09
2.601388e-10
1.242441e-09
4.839996e-10
-1.726441e-09
-1.253236e-09
1.819197e-09
-5.659607e-10
-5.469269e-10
1.868788e-09
-1.321861e-09
-1.009074e-09
1.681717e-09
-6.726433e-10
9.984532e-10
-1.878259e-09
8.798056e-10
-8.842477e-10
1.598128e-09
-7.138806e-10
-1.037154e-09
-3.503742e-10
1.387528e-09
4.012455e-10
-1.337445e-09
9.36199e-10
1.915662e-09
-9.750993e-10
-9.405628e-10
-1.517772e-09
4.81134e-10
1.036638e-09
8.329268e-10
6.78928e-10
-1.511855e-09
5.943454e-10
1.002787e-09
-2.723397e-10
1.71365e-09
-1.44131e-09
4.059979e-10
-1.664065e-09
1.258067e-09
-1.098853e-09
1.919256e-09
-8.204032e-10
-1.575916e-09
7.486424e-10
8.272733e-10
1.147759e-09
-1.936398e-09
7.886393e-10
-1.41463e-09
-5.653595e-10
1.979989e-09
-1.524548e-09
1.930636e-09
-4.06088e-10
1.240793e-09
-1.141135e-09
-9.965792e-11
7.590674e-10
-2.01142e-09
1.252352e-09
1.174457e-09
8.435502e-10
-2.018007e-09
7.763498e-10
-1.527867e-09
7.515171e-10
1.660807e-10
1.296542e-09
-1.462623e-09
7.709941e-10
1.081793e-09
-1.852787e-09
-1.788598e-09
1.01693e-09
7.716679e-10
7.517311e-10
-1.874434e-09
1.122703e-09
1.927629e-09
-1.191817e-09
-7.358125e-10
1.302356e-09
-2.086455e-09
7.840986e-10
-1.465919e-09
2.331913e-10
1.232728e-09
1.325495e-09
1.533137e-10
-1.478808e-09
1.841931e-10
-5.106243e-10
1.233209e-09
-7.22585e-10
-2.142123e-09
1.216671e-09
9.254516e-10
-5.894065e-10
1.689426e-09
-1.10002e-09
-4.610913e-10
1.738151e-09
-1.277059e-09
2.097165e-09
-1.007568e-09
-1.089597e-09
-7.816339e-10
1.064497e-09
-2.828633e-10
4.897966e-10
1.218065e-09
-1.707862e-09
6.472256e-10
5.935675e-10
1.086368e-09
-3.123386e-10
-7.74029e-10
-1.526855e-09
1.396731e-10
1.387182e-09
8.518896e-10
9.534247e-10
-1.805314e-09
-5.620477e-10
1.447533e-09
-8.854854e-10
1.099142e-09
-1.894431e-09
7.952891e-10
-5.94211e-10
-1.009523e-09
1.603734e-09
-5.552094e-10
-1.962459e-09
1.220054e-09
7.424055e-10
1.088115e-09
-1.913804e-09
8.256883e-10
-9.258632e-10
-1.081583e-09
2.007446e-09
1.349459e-09
-1.166446e-09
-1.830126e-10
1.854599e-09
-1.727583e-09
-1.270161e-10
1.455159e-09
-3.584874e-10
-1.096671e-09
1.534683e-09
-3.214403e-10
-1.213242e-09
-9.163127e-10
-8.474688e-10
1.763781e-09
8.725984e-10
7.623422e-10
-1.634941e-09
-8.092471e-10
1.934113e-09
-1.124866e-09
-1.276825e-09
-5.598984e-11
1.332815e-09
-2.698438e-10
2.054163e-09
-1.784319e-09
-1.129898e-09
1.980299e-09
-8.504015e-10
-1.082981e-09
1.908101e-09
-8.251196e-10
-9.548141e-10
1.769728e-09
-8.149136e-10
-1.542406e-09
-1.185035e-10
1.660909e-09
-3.758206e-10
1.699965e-09
-1.324145e-09
1.674705e-09
-1.825146e-09
1.504415e-10
-3.069326e-11
1.590357e-09
-1.559663e-09
5.541445e-10
-1.900166e-09
1.346021e-09
6.847694e-10
-1.701127e-09
1.016358e-09
-5.49741e-10
1.80449e-09
-1.254749e-09
4.855816e-10
1.050658e-09
-1.536239e-09
2.188995e-09
-1.483119e-09
-7.058757e-10
-4.861604e-10
-1.123637e-09
1.609797e-09
1.042641e-09
-1.12221e-09
7.956935e-11
-1.674158e-11
-1.642419e-09
1.65916e-09
-4.599916e-10
-1.174764e-09
1.634756e-09
-2.369069e-10
1.596111e-09
-5.131089e-10
-1.394388e-09
1.907496e-09
1.901719e-09
-8.265445e-10
-1.075175e-09
9.778163e-10
1.200159e-09
-2.177975e-09
9.878692e-10
-2.086099e-09
1.09823e-09
8.551862e-10
1.1782e-09
-2.033386e-09
-1.731691e-09
1.307695e-09
4.239952e-10
-7.024987e-10
1.385171e-09
-3.689469e-10
-1.357258e-09
1.726204e-09
-1.797504e-09
6.873794e-10
1.110124e-09
8.252948e-10
-1.908792e-09
4.133594e-10
-1.713515e-09
1.300156e-09
-1.097774e-09
-1.038754e-09
2.136528e-09
-9.873273e-10
1.95806e-09
-9.707331e-10
-2.889658e-10
-1.221555e-09
1.510521e-09
1.448275e-09
-1.99552e-10
1.464e-09
3.921506e-09
-5.385506e-09
2.128716e-09
-1.135384e-09
-9.933325e-10
1.621291e-09
-1.992074e-10
-1.422084e-09
1.412937e-09
-1.449458e-09
3.652107e-11
-1.315967e-09
7.690399e-10
-1.214982e-09
1.980864e-09
7.862038e-10
1.339828e-09
-2.126032e-09
-1.306529e-09
1.341267e-09
-3.47382e-11
-1.75674e-09
1.425563e-09
3.311774e-10
7.066824e-10
1.291694e-09
-1.998376e-09
-1.70394e-09
9.438495e-10
7.600909e-10
9.534518e-10
8.695414e-10
-1.036245e-09
-2.549195e-10
1.291165e-09
-4.319395e-10
1.583791e-09
6.543594e-10
-1.418741e-09
7.643813e-10
-1.825724e-09
2.670085e-10
1.558716e-09
-1.331137e-09
3.663846e-10
9.647525e-10
2.121268e-09
-1.386969e-09
-7.342993e-10
9.213126e-10
-1.720361e-09
7.990487e-10
-9.22705e-10
1.681772e-09
-1.00209e-09
-8.036218e-10
1.805712e-09
-1.362925e-09
-6.155605e-10
1.978486e-09
1.462946e-09
-1.613112e-09
1.013152e-09
5.999602e-10
-1.083404e-09
1.907273e-09
-8.238684e-10
-8.235485e-10
-7.864252e-10
1.609974e-09
-8.138637e-10
1.731511e-09
-9.176472e-10
2.105641e-10
1.338806e-09
-1.54937e-09
-1.360303e-09
-3.743034e-10
1.734607e-09
1.096468e-09
-2.108114e-09
1.011646e-09
-3.849641e-10
-1.53792e-09
1.922884e-09
1.88401e-09
-9.432404e-10
-9.407699e-10
9.124014e-10
-1.87306e-09
9.606588e-10
-2.006242e-09
1.284311e-09
7.219314e-10
1.676412e-09
-4.339707e-10
-7.600082e-10
-8.545075e-10
-6.635472e-10
1.690219e-09
-1.026671e-09
-1.317439e-09
1.740141e-09
-4.22702e-10
-1.530428e-09
-2.085664e-10
1.738994e-09
-3.237321e-10
1.569303e-09
-1.245571e-09
-1.98411e-10
1.531817e-09
-1.333406e-09
-1.391511e-09
-5.139847e-10
1.905496e-09
1.869612e-09
-9.572106e-10
-2.121299e-09
1.145171e-09
9.761275e-10
8.108383e-10
9.408725e-10
-1.751711e-09
1.688681e-09
-6.542773e-10
-1.034404e-09
-7.152142e-10
-9.990751e-10
1.714289e-09
9.970416e-10
6.194103e-10
-1.616452e-09
-5.418637e-10
2.218451e-09
-1.676587e-09
1.163496e-09
-1.827608e-09
6.641121e-10
1.489329e-09
-1.91737e-09
4.280413e-10
-5.840623e-10
1.731821e-09
-9.558284e-10
1.942649e-09
-9.86821e-10
-1.511901e-09
1.344467e-09
1.674343e-10
-1.280305e-09
-7.490673e-10
2.029372e-09
-1.055302e-09
1.862904e-09
-8.076022e-10
8.002221e-10
-8.57306e-10
-7.572471e-10
-8.119136e-10
-1.140258e-09
1.952172e-09
1.77994e-09
-9.797184e-10
-5.818575e-10
1.836573e-09
-1.752407e-09
8.539129e-10
8.984938e-10
-7.406608e-10
1.922735e-09
-1.182074e-09
4.622548e-10
-1.65829e-09
1.196035e-09
1.798318e-09
-1.301803e-09
-4.965149e-10
-1.565576e-09
8.362269e-10
7.29349e-10
3.328514e-10
-1.781185e-09
1.448334e-09
1.554054e-09
-2.80348e-10
-1.273706e-09
1.958057e-09
-9.709509e-11
-1.573699e-09
2.830817e-10
1.290618e-09
7.966373e-10
1.032255e-09
-1.828893e-09
1.617314e-09
-8.46069e-10
-7.712452e-10
2.457772e-10
-1.687298e-09
1.44152e-09
-2.29046e-09
5.576304e-10
1.732829e-09
6.570566e-10
8.504282e-10
-1.507485e-09
-2.136298e-09
1.561647e-09
5.746513e-10
4.378382e-10
-1.749677e-09
1.311839e-09
-8.466108e-10
1.846045e-09
-9.994339e-10
-6.845231e-10
1.758928e-09
-1.074405e-09
4.499528e-10
-1.220772e-09
7.708188e-10
-3.7445e-10
1.424226e-09
-1.049776e-09
-1.962478e-09
1.223441e-09
7.390368e-10
-1.268636e-09
-3.854133e-10
1.654049e-09
6.076595e-10
1.013632e-09
1.530828e-09
-7.790965e-10
-1.583793e-09
6.307396e-10
9.530534e-10
-1.930684e-09
8.508359e-10
1.079849e-09
-1.009852e-09
-4.288922e-10
1.438744e-09
9.603144e-11
1.666808e-09
-1.76284e-09
2.454117e-10
1.359683e-09
-1.605095e-09
-1.110807e-09
1.889402e-09
-7.785944e-10
9.374657e-10
-2.228817e-09
1.291352e-09
7.701248e-10
8.096955e-10
-1.57982e-09
-1.169752e-09
-5.826549e-10
9.594996e-10
-1.72964e-09
7.701401e-10
3.694362e-10
-1.675965e-09
1.611275e-09
3.467816e-10
-3.120509e-11
-1.378583e-09
1.409788e-09
-6.947192e-10
-9.195839e-10
1.400658e-10
-1.453373e-09
1.313307e-09
9.552234e-10
8.142677e-10
-1.769491e-09
-6.299428e-10
1.544505e-09
-9.145626e-10
7.534524e-10
1.049844e-09
-1.803296e-09
-1.376861e-09
1.298724e-09
7.813717e-11
3.702413e-09
6.212981e-10
-4.323711e-09
9.315864e-10
9.524239e-10
3.885888e-09
-5.185221e-09
1.299334e-09
-1.036131e-09
-7.293343e-10
1.765465e-09
1.942066e-09
-2.860554e-10
-1.65601e-09
-1.048637e-09
-6.089183e-10
1.657555e-09
-9.668802e-10
1.282818e-09
-3.159379e-10
1.636342e-09
-1.082506e-09
-5.538357e-10
8.533238e-10
7.600844e-10
-1.613408e-09
-1.859244e-09
1.297196e-09
8.256902e-10
1.08376e-09
-7.537973e-10
-9.899463e-10
1.743744e-09
-9.276447e-10
1.788238e-09
-8.605934e-10
-1.913825e-09
8.42569e-10
1.071255e-09
-1.823043e-09
9.764319e-10
1.034541e-09
-2.014919e-09
3.512315e-09
-6.550113e-09
3.037798e-09
1.586257e-09
-7.028318e-10
-8.834253e-10
-1.838721e-09
1.049403e-09
7.89318e-10
-1.557243e-09
1.286363e-09
-2.015023e-09
1.329925e-09
6.850982e-10
1.622678e-09
-1.482612e-09
-1.103829e-09
1.928532e-09
-8.24703e-10
4.964193e-10
9.358521e-10
-1.432271e-09
1.844176e-09
-1.606059e-09
-2.381168e-10
-1.384249e-09
1.566419e-09
-1.821699e-10
4.63341e-10
1.067487e-09
7.886452e-10
1.070855e-09
-1.8595e-09
1.285267e-09
-1.51103e-09
2.257627e-10
1.235664e-09
5.055088e-10
-1.741172e-09
8.987803e-10
2.527881e-09
1.675211e-09
-5.837316e-10
-1.09148e-09
2.098971e-09
-3.245863e-09
1.146892e-09
-1.199487e-09
-5.071617e-10
1.706648e-09
-1.49399e-09
1.039181e-09
4.548097e-10
-4.955487e-10
1.635093e-09
-1.139544e-09
1.28022e-09
-2.087054e-09
8.068341e-10
-1.067378e-09
-7.556644e-10
4.40171e-10
-1.807567e-09
1.367396e-09
-1.668207e-09
4.687206e-10
-7.898187e-10
-1.033291e-09
1.82311e-09
-7.756276e-10
1.775388e-09
-9.997606e-10
-1.035746e-09
1.451972e-09
-4.162259e-10
1.07496e-09
6.00251e-10
-1.40506e-09
4.46913e-10
9.581474e-10
8.971063e-10
7.664261e-10
-1.663532e-09
-1.817931e-09
9.44606e-10
1.512463e-09
-1.427398e-09
-4.802965e-10
1.768783e-09
-1.288487e-09
-6.514123e-10
-9.499169e-10
1.601329e-09
-1.959415e-09
1.44879e-09
-1.579144e-09
1.843576e-09
-2.644322e-10
-6.225203e-10
-8.165478e-10
1.832948e-09
-1.0164e-09
1.410579e-09
-2.038648e-09
6.280692e-10
8.627279e-10
9.664755e-10
-1.829203e-09
-6.34957e-10
-1.17051e-09
1.805467e-09
-9.404632e-10
-6.70469e-10
1.610932e-09
1.813502e-09
-7.735116e-10
-1.03999e-09
6.414622e-10
8.677801e-10
-1.509242e-09
1.49772e-09
-1.478666e-09
-1.90547e-11
1.740075e-09
-2.289968e-09
5.498932e-10
2.861555e-10
-1.847232e-09
1.561076e-09
1.498939e-09
-8.115568e-10
-6.873825e-10
-1.836165e-09
7.323361e-10
-7.76102e-10
-1.058401e-09
1.834503e-09
5.721424e-09
-1.835536e-09
-2.109037e-09
1.104725e-09
1.004312e-09
-9.58612e-10
-1.224771e-09
2.183383e-09
-1.187673e-09
-6.862849e-10
1.24285e-09
7.994864e-10
-2.042336e-09
1.159607e-09
-1.439217e-09
2.796096e-10
-1.576563e-09
8.628669e-10
7.136962e-10
6.820593e-11
1.35186e-09
-1.420066e-09
1.607065e-09
-1.44623e-09
-1.608351e-10
1.00515e-09
-6.061106e-11
-9.445391e-10
-3.75547e-10
-1.31283e-09
1.688377e-09
-1.818196e-09
5.443881e-10
1.273808e-09
1.839933e-09
-9.537649e-10
-8.861684e-10
-1.711989e-09
5.519281e-09
-3.807292e-09
1.287183e-10
-1.675699e-09
-1.750311e-09
-3.859871e-10
-1.646011e-09
6.911971e-10
-1.349154e-09
1.41736e-09
5.997911e-11
1.099628e-09
-2.074014e-10
-1.868174e-09
2.075575e-09
8.805934e-10
8.753599e-10
9.27846e-10
9.817701e-10
-1.909616e-09
1.259111e-09
-1.033709e-09
-2.254023e-10
1.015235e-10
-1.492316e-09
1.390792e-09
1.383526e-09
3.522348e-10
-1.735761e-09
1.78344e-09
-1.260265e-09
-5.231751e-10
-4.718091e-09
3.024377e-09
1.693714e-09
-1.507193e-09
1.40533e-09
1.018633e-10
-7.843085e-10
-1.17817e-09
-1.737946e-09
1.163539e-09
5.744067e-10
-9.009585e-11
1.421807e-09
-1.331711e-09
2.414004e-10
-1.530461e-09
1.289061e-09
-1.459722e-09
1.030271e-09
4.29451e-10
1.266721e-09
1.151546e-09
8.206469e-10
-1.972193e-09
8.151578e-10
-1.710162e-09
8.950042e-10
1.676663e-09
-1.186867e-09
9.035158e-10
-1.690011e-09
7.864954e-10
8.296033e-10
-1.645809e-09
8.162056e-10
-2.4522e-09
9.640266e-10
1.488174e-09
2.158067e-09
-5.978088e-10
-1.560258e-09
3.293148e-09
-3.810484e-09
5.173362e-10
-3.440129e-10
-1.05744e-09
1.401453e-09
6.706972e-10
-1.706828e-09
-8.021671e-10
-5.384202e-10
1.340587e-09
1.076192e-09
-1.556488e-09
-1.907625e-09
1.089593e-09
8.180319e-10
-1.357881e-09
-3.556922e-10
1.713573e-09
-2.248085e-09
1.238233e-09
-6.502197e-10
-7.332601e-10
1.38348e-09
-3.028e-09
5.317231e-10
2.496276e-09
-4.035291e-10
-1.547896e-09
1.891188e-09
-8.018209e-10
-1.456206e-09
3.841337e-10
1.072073e-09
-2.131521e-09
8.263485e-10
1.305173e-09
1.523189e-09
-1.672531e-09
1.493421e-10
7.895058e-10
-1.699102e-09
6.900279e-10
8.213247e-09
1.548936e-10
-8.36814e-09
-1.238042e-09
1.288789e-09
-5.074709e-11
2.085755e-09
-9.878806e-10
-1.097874e-09
1.826261e-09
-2.018774e-10
-1.624384e-09
-2.085963e-09
1.324561e-09
7.614023e-10
-1.124087e-09
-4.061134e-09
1.676791e-09
-8.735368e-10
-8.032538e-10
2.085994e-09
-9.872997e-10
-1.098695e-09
-1.699408e-09
1.186299e-09
2.086741e-09
-9.881667e-10
-1.098574e-09
-5.387073e-10
-1.187819e-09
1.726527e-09
-1.776806e-09
7.90361e-10
9.864452e-10
1.667373e-09
7.332005e-12
8.243788e-10
-1.90736e-09
1.921434e-09
-1.23641e-09
-6.850236e-10
1.909183e-09
-1.036585e-09
-1.084018e-09
1.909313e-09
-1.481671e-09
2.015539e-09
-5.338689e-10
3.5557e-10
-1.52836e-09
1.89528e-09
-1.371357e-09
-5.239229e-10
2.811181e-10
1.332483e-09
-1.613601e-09
3.274377e-10
1.370338e-09
-1.697776e-09
-1.684256e-09
1.188707e-09
3.831797e-10
1.067307e-09
-1.66988e-09
9.546655e-10
-2.060437e-10
-1.062592e-09
-1.493062e-09
1.488093e-09
4.969468e-12
-7.630064e-10
2.071912e-09
-8.66445e-10
-1.285957e-09
2.152402e-09
-7.545417e-10
2.029241e-09
-1.274699e-09
1.738478e-09
-1.497077e-09
7.630449e-10
-1.594294e-09
8.312494e-10
5.672646e-10
6.659447e-10
-1.351506e-09
-1.018193e-10
1.453326e-09
-3.456178e-10
-1.331246e-09
1.676864e-09
-8.066814e-10
5.029478e-10
1.090583e-09
-1.593531e-09
-1.183906e-09
1.291242e-09
-1.073366e-10
-1.963466e-11
1.396094e-09
-1.376459e-09
1.09847e-09
9.875245e-10
2.085681e-09
-9.873977e-10
-1.098283e-09
-1.098036e-09
-9.879272e-10
7.693554e-10
-1.703023e-09
9.336679e-10
-7.218974e-10
1.767384e-09
-1.045487e-09
9.875984e-10
1.098083e-09
-2.085567e-09
1.346832e-09
7.387349e-10
1.910527e-09
-1.141171e-09
7.546035e-10
-2.034909e-09
-2.052001e-10
-1.024115e-09
1.229315e-09
-1.750278e-09
1.075924e-09
6.743545e-10
-1.09806e-09
-9.877417e-10
2.085802e-09
-4.2232e-10
-1.309371e-09
-1.226178e-09
1.100253e-09
1.259243e-10
3.181294e-10
1.235925e-09
1.080459e-09
-2.003164e-09
-4.762545e-10
-1.202134e-09
1.678389e-09
-1.699275e-09
5.889977e-10
1.110277e-09
-7.014801e-10
1.961776e-09
-1.260296e-09
1.706166e-09
-1.417982e-09
1.91483e-09
-1.151562e-09
-7.632678e-10
-7.195307e-10
1.871077e-09
9.87199e-10
8.364422e-10
-1.823641e-09
-1.126712e-09
1.588452e-09
-4.617397e-10
-9.621173e-10
-8.010277e-10
1.763145e-09
-1.909202e-09
1.082586e-09
8.266157e-10
-1.884614e-09
3.220729e-11
1.852406e-09
-1.897415e-09
1.5521e-09
3.453145e-10
1.309797e-09
-3.86663e-10
-9.231339e-10
3.303223e-10
1.530717e-09
-1.861039e-09
1.528599e-09
-1.798443e-09
1.891946e-09
-7.492658e-10
-1.14268e-09
5.510544e-10
1.316327e-09
-1.867382e-09
1.86248e-09
-1.212403e-09
-6.500776e-10
1.653945e-10
-1.403437e-09
-1.791871e-09
1.216278e-09
5.755926e-10
8.536391e-10
8.202329e-10
1.363285e-09
-1.947017e-09
-1.882534e-09
6.269931e-10
1.255541e-09
2.508264e-09
7.450541e-10
8.904068e-10
-2.185039e-09
1.294632e-09
-1.410983e-09
-2.509191e-10
1.661902e-09
-8.100393e-10
1.705974e-09
-8.959349e-10
-1.631173e-09
1.188614e-09
4.425584e-10
-8.219864e-10
-4.817573e-10
1.303744e-09
1.092256e-09
4.966208e-10
-1.683958e-09
8.966326e-10
7.213504e-10
8.566038e-10
-1.577954e-09
1.757751e-09
-5.321413e-10
-1.22561e-09
-1.908669e-09
8.246508e-10
-1.049005e-09
1.605665e-09
-5.566596e-10
1.10786e-09
-1.792383e-09
8.805092e-10
7.233898e-10
-1.603899e-09
4.315532e-10
-1.652841e-09
1.221287e-09
-1.001777e-09
-3.998337e-10
7.754233e-10
-1.248391e-09
4.729675e-10
9.358798e-10
9.844524e-10
-1.920332e-09
-8.289976e-10
1.33784e-09
-5.088426e-10
3.882048e-10
9.624288e-10
-1.350634e-09
-1.842286e-09
1.227415e-09
6.148705e-10
1.955164e-09
-1.380652e-09
-5.745121e-10
8.463224e-10
-1.724971e-09
-1.574991e-09
9.351621e-10
6.398294e-10
1.131286e-09
9.059866e-10
-2.037272e-09
4.045034e-10
-1.762385e-09
-1.616845e-09
1.132455e-09
4.8439e-10
8.302949e-10
7.387587e-10
-1.569054e-09
-1.13851e-09
-4.351888e-10
-5.13787e-09
2.090993e-09
3.046877e-09
-1.873069e-09
3.283447e-10
1.544724e-09
1.752756e-09
-7.543026e-10
3.020399e-09
1.49636e-09
-2.020373e-09
-1.345601e-09
4.292408e-11
-2.564122e-09
2.521198e-09
-6.181372e-10
-7.584502e-09
8.202639e-09
-1.355159e-09
-3.223572e-11
1.387395e-09
-7.881166e-11
-1.436504e-09
1.515316e-09
-2.13171e-09
5.075835e-10
1.624126e-09
-7.451978e-10
1.628267e-09
-8.830696e-10
-1.96246e-09
8.516532e-10
1.565595e-09
-7.251299e-10
-8.404653e-10
9.362526e-10
-1.680661e-09
7.444087e-10
1.681369e-09
-6.99632e-10
-9.817368e-10
-6.893965e-10
1.555825e-09
-8.664282e-10
-8.431903e-10
-5.819534e-10
1.425144e-09
7.601748e-10
1.2746e-09
-2.034775e-09
-5.497225e-10
-1.100828e-09
1.650551e-09
1.613771e-09
-3.129493e-10
-1.300821e-09
1.734575e-10
-1.611009e-09
1.437552e-09
-1.532718e-09
4.917813e-10
1.040937e-09
1.24128e-09
2.485754e-10
-1.489855e-09
1.280322e-09
-2.029389e-09
-8.572692e-10
1.686909e-09
-8.296397e-10
3.857892e-09
-2.959112e-09
-7.781671e-10
-1.150917e-09
1.929084e-09
-8.038905e-10
-1.011316e-09
1.815206e-09
-1.227104e-09
1.751695e-09
-5.245908e-10
1.067735e-09
-1.553896e-09
-6.588794e-10
-1.135979e-09
-9.542835e-10
-2.513748e-10
1.205658e-09
-6.349492e-10
1.417131e-09
-7.821818e-10
1.776027e-09
-1.012982e-09
1.543793e-09
-1.761766e-09
2.179734e-10
1.556471e-09
-1.596204e-09
3.973229e-11
1.916396e-09
-1.178579e-09
-7.37817e-10
-2.024817e-09
5.00269e-10
-2.244259e-09
6.385176e-10
1.605742e-09
-5.699005e-10
1.402827e-09
2.063219e-09
-9.584937e-10
7.716366e-10
-2.05175e-09
1.280113e-09
9.274538e-10
-1.527762e-09
6.003086e-10
6.935591e-10
1.198387e-09
-2.062339e-09
1.694528e-09
6.417987e-10
-1.933222e-09
1.291423e-09
6.102589e-10
-1.872125e-09
1.261866e-09
7.220816e-10
1.118652e-09
-1.840734e-09
8.659234e-10
5.516628e-10
-1.417586e-09
-1.820981e-09
1.22677e-09
-1.429498e-09
-5.703254e-11
1.486531e-09
3.696287e-10
-1.345094e-09
9.754649e-10
9.288306e-10
8.181522e-10
-1.746983e-09
9.914968e-10
8.979048e-10
2.912445e-10
-1.821672e-09
-1.257459e-09
1.384843e-09
-1.273843e-10
-5.74613e-10
1.955248e-09
-1.380635e-09
-1.368044e-09
-5.624668e-10
1.930511e-09
2.820081e-09
-2.018532e-09
-8.015496e-10
-1.604448e-09
6.575753e-10
9.468724e-10
-1.010527e-09
1.767602e-09
-7.570751e-10
-7.49122e-10
-1.249012e-09
-4.059162e-10
1.604422e-09
-6.732179e-10
1.998377e-09
-1.325159e-09
-1.675209e-09
1.274161e-09
4.010474e-10
-1.700906e-09
1.324017e-09
3.768891e-10
-4.930554e-10
-2.398849e-09
2.891904e-09
-9.626073e-10
9.82287e-10
-1.851423e-09
8.691361e-10
-1.098969e-09
-9.868997e-10
2.085869e-09
-4.472765e-10
1.794214e-09
-1.346938e-09
-1.574464e-09
9.393051e-10
6.351584e-10
1.546241e-09
2.18926e-11
-1.568134e-09
-8.655767e-10
-1.412274e-09
2.277851e-09
-1.380766e-09
1.738141e-09
-3.573753e-10
-1.738025e-09
1.362478e-09
-1.924533e-09
2.215778e-09
1.619007e-09
-1.138639e-09
-4.803684e-10
5.629273e-10
-1.825817e-09
1.262889e-09
-1.08445e-09
1.768581e-09
-6.841308e-10
-1.087185e-09
-6.401847e-10
1.72737e-09
7.383814e-10
8.078595e-10
3.302664e-09
1.00557e-09
-4.308234e-09
6.58444e-10
-1.780066e-09
1.121622e-09
-1.310849e-09
1.952997e-09
-1.80343e-09
1.008167e-09
7.952627e-10
9.245521e-10
9.9111e-10
-3.235401e-09
8.805101e-10
-1.936587e-09
1.056077e-09
-4.193256e-10
-1.505207e-09
9.720871e-10
7.06215e-10
1.490717e-09
-2.196932e-09
-1.330127e-09
1.171657e-09
1.584705e-10
-1.150206e-09
-4.257101e-10
-2.118127e-09
2.311586e-09
-1.934587e-10
-4.504384e-10
-1.323185e-09
1.773623e-09
-7.01184e-10
2.22787e-09
-1.526686e-09
1.307689e-09
-1.285797e-09
1.680488e-09
-9.328492e-10
-7.476391e-10
3.806089e-09
-3.032403e-10
-3.502849e-09
9.814793e-10
6.047777e-10
-7.870855e-10
1.55066e-09
-7.635744e-10
7.326906e-10
-9.110186e-12
-1.440292e-09
1.449402e-09
1.04215e-09
-8.04777e-11
1.487705e-09
1.327522e-09
5.166542e-10
-5.169456e-11
3.56401e-09
-7.648942e-10
-8.516821e-10
-7.547376e-10
7.419599e-10
3.064129e-09
-1.072822e-09
-7.039842e-10
1.34467e-09
-1.425148e-09
-7.61839e-10
-5.692981e-10
-1.110848e-09
-1.96541e-10
1.307389e-09
1.857214e-10
-1.802566e-09
-1.072701e-09
1.832876e-09
-1.441654e-09
3.117562e-10
1.929145e-09
-9.418993e-10
-1.82751e-09
5.743097e-10
1.253201e-09
-3.025202e-10
-1.413892e-09
1.716412e-09
1.531536e-09
4.105296e-10
-1.217864e-09
2.038511e-09
5.765333e-10
5.144891e-09
-1.289554e-09
8.855671e-10
4.039867e-10
-7.77727e-10
1.79632e-09
-1.018593e-09
-1.390202e-09
2.141274e-09
-7.510726e-10
-4.219944e-10
-1.563402e-09
1.516837e-09
4.656579e-11
-2.228665e-10
1.598898e-09
-1.376031e-09
-1.643441e-09
1.434875e-09
9.71079e-10
-1.716277e-09
6.879283e-10
1.06751e-09
-1.755438e-09
8.982425e-10
1.124223e-09
-2.022465e-09
1.960352e-09
-8.714103e-10
-1.088942e-09
1.179694e-09
3.859015e-10
1.712747e-09
-1.019482e-09
-6.932657e-10
1.860015e-09
-1.063378e-09
9.237345e-10
-1.699837e-09
-1.79296e-09
9.674333e-10
8.255268e-10
9.800195e-10
-1.385936e-09
-1.916156e-09
9.288289e-10
-1.628136e-09
8.927162e-10
7.354194e-10
1.597568e-09
-7.949482e-10
-8.026201e-10
7.056806e-10
-5.064713e-10
-1.83465e-09
1.226745e-09
6.079049e-10
1.195764e-09
-1.737754e-09
5.419899e-10
-2.678311e-10
1.75716e-09
-1.820853e-09
8.599788e-10
9.608741e-10
3.66939e-10
1.102763e-09
-1.469702e-09
-1.849613e-09
6.945825e-10
1.155031e-09
1.244662e-10
-1.529812e-09
1.405346e-09
1.886351e-09
-1.335297e-09
1.401094e-09
1.478973e-09
-1.045629e-10
-1.37441e-09
-2.024554e-09
4.940925e-10
-1.83024e-09
1.259468e-09
5.707728e-10
-1.172381e-09
1.712782e-09
-5.404001e-10
1.02122e-09
-1.80068e-09
4.556929e-10
-1.718064e-09
1.262372e-09
-1.204968e-09
2.903166e-10
9.146514e-10
1.12888e-09
-1.678621e-09
9.731712e-10
-1.716588e-09
7.434165e-10
6.560971e-10
-2.046299e-09
-1.31192e-09
1.557697e-09
1.893873e-09
-1.235429e-09
-7.173174e-10
9.937019e-10
5.744492e-10
-1.568151e-09
7.749205e-10
-3.032818e-10
-1.031612e-09
1.334894e-09
3.284272e-10
2.01082e-09
-2.339247e-09
-1.222965e-09
-6.728606e-10
1.895825e-09
-1.006253e-09
1.208097e-09
-1.523512e-09
3.154146e-10
-1.735214e-09
9.313236e-10
-8.755644e-10
-7.396054e-10
-1.217944e-09
-3.061094e-10
1.524053e-09
8.771591e-11
-1.430574e-09
1.342858e-09
-6.728284e-10
1.820488e-09
-1.147659e-09
-1.097169e-09
1.354233e-09
-5.470791e-10
-8.071543e-10
-7.190015e-10
-9.81416e-10
1.700418e-09
-1.21306e-09
8.690472e-10
-1.990352e-09
1.139372e-09
1.936846e-09
4.078367e-10
-2.344682e-09
-1.119624e-09
-4.021513e-10
1.521775e-09
-1.575579e-09
6.765359e-10
8.990433e-10
-8.470248e-10
1.931981e-09
-1.084957e-09
-1.212711e-09
1.20099e-09
1.172099e-11
-1.656936e-09
9.379347e-10
-1.252782e-09
2.180628e-09
1.17679e-09
7.812703e-10
1.188629e-09
-1.299808e-09
-8.690634e-10
2.168872e-09
-1.90995e-09
8.427747e-10
1.067175e-09
-9.269851e-10
-7.760382e-10
2.085856e-09
-1.098258e-09
-1.789976e-10
1.678874e-09
-1.499877e-09
7.751061e-10
1.215418e-09
-9.264341e-10
1.824677e-09
1.218364e-09
6.368587e-10
-1.855223e-09
-3.695482e-10
-1.574956e-09
1.944504e-09
1.909921e-09
-1.084231e-09
-1.19468e-09
1.873325e-09
-6.786449e-10
-7.948862e-11
1.774676e-09
-1.695187e-09
1.15771e-09
-1.691091e-09
5.333815e-10
-1.492154e-09
7.375613e-10
7.545925e-10
-1.257637e-09
-6.307282e-10
1.888366e-09
-2.100959e-09
7.835203e-10
1.175413e-09
9.658615e-10
2.744943e-10
9.743818e-10
-1.248876e-09
9.334763e-10
-1.829099e-09
8.95623e-10
-1.317059e-09
1.973157e-09
-4.183357e-09
1.659974e-09
2.523383e-09
-1.66763e-09
1.207638e-09
-1.689951e-09
9.001318e-10
1.553988e-09
-1.482704e-09
-7.128451e-11
1.396435e-09
-1.633342e-09
8.825485e-10
2.808552e-09
1.113816e-09
2.274513e-10
-1.26713e-09
7.519386e-10
5.151912e-10
-1.440895e-09
5.44521e-10
8.963744e-10
-3.023321e-10
-1.025109e-09
1.156717e-09
-1.447486e-09
2.907693e-10
-1.446616e-09
1.417587e-09
2.902933e-11
-1.638705e-09
-1.467484e-09
7.040945e-10
7.633896e-10
1.30757e-09
-3.48803e-10
-9.587674e-10
2.16586e-09
1.087791e-09
8.25731e-10
-1.913522e-09
-6.50729e-10
1.29093e-09
1.155433e-09
-2.446363e-09
-6.274053e-10
-7.613778e-10
1.850971e-09
6.89581e-10
-1.554603e-09
8.650223e-10
-9.760573e-10
-9.083945e-10
1.884452e-09
-1.699165e-09
3.658851e-10
1.33328e-09
-1.890888e-09
9.399864e-10
9.509014e-10
-1.449281e-09
4.002762e-10
-1.290127e-09
-3.971704e-10
-1.274185e-09
1.375708e-09
1.642999e-09
-7.905659e-10
-8.524331e-10
-1.592354e-09
-2.110753e-10
-1.344569e-09
1.776122e-09
-1.344346e-09
2.176339e-10
-1.001533e-09
1.641814e-09
-6.402818e-10
2.178128e-09
-1.201428e-09
-9.767e-10
1.586961e-09
-8.868237e-10
-7.001371e-10
-1.598013e-09
6.952203e-10
9.027926e-10
-1.105856e-09
-1.506687e-09
1.523893e-09
-1.720581e-11
4.597565e-10
1.037039e-09
-1.496796e-09
5.553097e-10
-1.55106e-09
9.957507e-10
1.274695e-09
-2.029237e-09
1.041182e-09
1.09928e-09
-2.140462e-09
-1.257769e-09
-1.194431e-09
-1.691645e-09
1.191147e-09
5.004976e-10
-1.087279e-09
1.080472e-09
-1.907511e-09
8.270392e-10
1.09652e-09
8.129613e-10
-1.909481e-09
-8.317102e-10
1.804881e-09
9.939837e-10
-1.914283e-09
-2.016302e-09
1.088658e-09
1.824091e-09
-8.301072e-10
1.697316e-09
1.709715e-09
-1.226174e-09
-4.835411e-10
-9.543898e-10
1.769548e-09
8.881934e-10
-1.704741e-09
1.815988e-09
-7.194683e-10
9.03614e-10
-1.727162e-09
-5.542913e-10
-7.758359e-10
-1.842793e-09
8.257925e-10
1.017001e-09
-1.628791e-09
4.540265e-10
-1.5507e-09
-1.152304e-09
-1.138155e-09
-1.584492e-09
-9.017177e-10
1.710727e-09
-8.090093e-10
1.29249e-09
-7.640809e-10
1.617405e-09
1.147347e-09
1.166942e-10
-1.264041e-09
1.614691e-09
-1.485972e-09
1.127523e-09
-6.490694e-10
1.941559e-09
8.132211e-10
9.588708e-10
-1.772092e-09
2.167232e-09
-8.496384e-10
-1.317593e-09
-8.622137e-10
-1.269307e-09
8.504124e-10
1.17896e-09
-9.880686e-10
-1.098386e-09
1.065378e-09
8.494518e-10
-1.231082e-09
1.887653e-09
-6.565702e-10
1.913199e-09
-6.749004e-10
-1.238298e-09
-8.533891e-10
-7.23174e-10
1.107438e-09
-1.492403e-09
1.133189e-09
-1.680574e-09
1.682109e-09
-1.551829e-09
-1.302792e-10
-2.554252e-10