/*--------------------------------*- C++ -*----------------------------------*\
| =========                 |                                                 |
| \\      /  F ield         | OpenFOAM: The Open Source CFD Toolbox           |
|  \\    /   O peration     | Version:  2406                                  |
|   \\  /    A nd           | Website:  www.openfoam.com                      |
|    \\/     M anipulation  |                                                 |
\*---------------------------------------------------------------------------*/
FoamFile
{
    version     2.0;
    format      ascii;
    arch        "LSB;label=32;scalar=64";
    class       volScalarField;
    location    "3.66";
    object      p;
}
// * * * * * * * * * * * * * * * * * * * * * * * * * * * * * * * * * * * * * //

dimensions      [0 2 -2 0 0 0 0];

internalField   nonuniform List<scalar> 
15536
(
-57.52016
-57.98356
-55.7123
-51.22913
-45.46033
-39.36642
-33.52277
-28.35712
-24.35452
-21.4876
-19.56339
-18.58432
-17.79248
-17.10537
-16.54992
-16.04332
-15.40994
-15.29163
-16.60654
-18.90153
-21.64779
-28.09205
-39.96186
-53.78039
-57.67425
-43.30958
-18.87002
0.5321172
-2.133942
-17.94839
-28.41319
-35.24305
-50.39215
-85.47732
-124.9969
-119.2419
-74.26859
-67.98673
-82.3926
-83.53095
-85.51832
-90.06436
-93.36344
-95.07653
-95.68822
-95.20843
-93.79127
-91.39042
-88.47706
-85.20175
-81.23914
-76.6932
-71.53285
-65.99944
-60.03989
-53.72566
-47.37936
-40.9276
-34.13967
-27.19345
-20.36499
-13.67055
-7.009796
-0.4384684
5.911023
12.12232
18.0372
23.63218
28.80138
33.54525
37.82353
41.63688
44.95178
47.69538
49.82406
51.43805
52.40704
52.78028
52.59664
51.92157
50.4923
48.39907
45.71666
42.44656
38.61103
34.22877
29.36882
23.94033
18.11089
11.92316
5.22276
-1.794957
-9.070364
-16.79496
-24.67392
-32.50325
-40.51973
-48.70476
-56.85984
-65.0832
-73.20285
-81.02583
-88.50956
-95.75169
-102.8896
-109.5962
-115.8499
-121.6074
-126.8947
-131.8009
-136.0136
-139.4627
-142.2181
-144.2738
-145.5411
-145.7788
-144.8851
-142.5368
-138.6207
-133.3759
-129.7896
-126.9227
-118.5353
-144.307
-179.3234
-158.8143
-112.9626
-85.90107
-75.4964
-64.63852
-42.23158
-20.47696
-50.40877
-119.692
-136.1032
-120.4569
-95.33314
-70.54457
-50.40713
-34.48627
-20.90733
-11.85242
-9.289124
-11.85467
-14.21746
-17.98002
-25.77999
-38.44321
-51.06425
-53.02221
-47.66173
-43.99254
-41.64673
-42.71188
-46.67706
-50.31308
-54.28627
-57.24998
-57.55968
-55.26018
-50.81469
-45.11251
-39.08315
-33.29682
-28.17743
-24.20902
-21.36959
-19.46311
-18.49872
-17.71957
-17.03984
-16.48814
-15.98869
-15.36729
-15.25046
-16.56319
-18.87416
-21.65229
-28.13876
-39.99941
-53.77236
-57.65505
-43.32045
-18.86831
0.6376202
-2.153855
-18.01507
-28.46289
-35.2222
-50.36092
-85.49667
-125.0841
-119.2434
-74.16394
-67.90529
-82.33651
-83.46081
-85.1275
-89.34077
-92.36927
-93.87335
-94.38894
-93.87184
-92.43932
-90.03495
-87.12708
-83.8763
-79.94406
-75.43614
-70.31746
-64.8338
-58.93052
-52.67497
-46.3882
-40.0008
-33.28274
-26.40288
-19.64137
-13.01468
-6.41813
0.08775993
6.373736
12.52166
18.37515
23.91399
29.03177
33.72744
37.96282
41.73855
45.02073
47.7391
49.84676
51.44595
52.40669
52.77706
52.59439
51.9233
50.50442
48.43033
45.77302
42.53357
38.73454
34.39498
29.58259
24.20745
18.43848
12.31103
5.676564
-1.267282
-8.470997
-16.12507
-23.92437
-31.6745
-39.61332
-47.71667
-55.7906
-63.93392
-71.97517
-79.72015
-87.12977
-94.30645
-101.3826
-108.0279
-114.2289
-119.9365
-125.1818
-130.0552
-134.2381
-137.6705
-140.4294
-142.4993
-143.7979
-144.0913
-143.3009
-141.1592
-137.5944
-132.7424
-129.538
-126.7921
-118.4525
-144.0963
-179.3489
-158.8643
-112.9263
-85.87155
-75.51423
-64.73545
-42.37278
-20.37417
-50.47068
-120.0044
-135.9708
-120.0047
-95.00876
-70.34581
-50.3139
-34.49194
-20.95634
-11.87987
-9.247907
-11.75704
-14.11946
-17.88917
-25.67874
-38.34263
-50.99802
-53.00091
-47.66487
-44.00508
-41.64179
-42.70361
-46.67536
-50.30509
-54.15193
-57.08509
-57.39038
-55.06678
-50.60535
-44.9054
-38.89693
-33.13947
-28.04131
-24.09361
-21.28337
-19.38874
-18.4476
-17.6829
-17.01322
-16.464
-15.96648
-15.33072
-15.18275
-16.4907
-18.8699
-21.69816
-28.27697
-40.13856
-53.92632
-57.85578
-43.5817
-19.1731
0.6800599
-2.100677
-18.03393
-28.47072
-35.23356
-50.42728
-85.71752
-125.6899
-119.6967
-74.41639
-67.66304
-81.34747
-82.86845
-84.62129
-88.54411
-91.44293
-92.97134
-93.56718
-93.07803
-91.68444
-89.30026
-86.40525
-83.18207
-79.26029
-74.77655
-69.6819
-64.22607
-58.35866
-52.11771
-45.85778
-39.51075
-32.81773
-25.96703
-19.23665
-12.64829
-6.088499
0.3903298
6.637755
12.75792
18.57869
24.08759
29.17674
33.8457
38.05451
41.80628
45.06686
47.76951
49.85929
51.44732
52.40111
52.76843
52.5872
51.92027
50.50901
48.45019
45.81044
42.59157
38.81678
34.50356
29.72139
24.37241
18.63711
12.54491
5.94063
-0.9651304
-8.129033
-15.7499
-23.51032
-31.21475
-39.11791
-47.18647
-55.2137
-63.33264
-71.337
-79.05075
-86.4305
-93.56208
-100.6094
-107.2144
-113.3891
-119.0685
-124.2867
-129.1449
-133.2997
-136.7017
-139.4321
-141.4733
-142.736
-142.9842
-142.1232
-139.9093
-136.4593
-131.9425
-128.8148
-125.999
-118.5923
-144.4279
-179.7754
-159.2399
-113.1189
-85.92794
-75.47415
-64.66785
-42.29439
-19.98528
-51.13262
-121.852
-136.7429
-119.9492
-94.8949
-70.247
-50.26618
-34.55454
-21.08755
-11.98154
-9.237543
-11.6839
-13.97934
-17.75036
-25.57136
-38.32289
-51.10681
-53.20439
-47.68922
-43.94573
-41.58072
-42.66349
-46.64248
-50.36764
-54.18856
-56.82523
-56.86441
-54.60816
-50.22471
-44.58375
-38.62814
-32.9253
-27.86009
-23.93516
-21.16328
-19.27826
-18.36624
-17.62193
-16.96287
-16.41286
-15.92195
-15.29457
-15.11673
-16.39898
-18.86685
-21.79589
-28.5142
-40.4137
-54.29976
-58.32511
-44.09494
-19.87986
0.5489932
-1.866961
-17.84011
-28.33421
-35.25731
-50.56432
-86.06344
-126.1603
-120.2206
-75.66751
-67.89049
-80.08263
-81.85037
-83.85481
-87.42892
-90.08668
-91.40358
-91.84373
-91.30641
-89.92985
-87.56685
-84.6949
-81.51499
-77.66423
-73.25414
-68.23073
-62.84856
-57.06228
-50.90479
-44.72135
-38.46054
-31.86555
-25.09147
-18.43847
-11.93388
-5.457174
0.9489876
7.116954
13.16927
18.92229
24.37404
29.40608
34.02228
38.18509
41.89795
45.12447
47.80385
49.86799
51.44202
52.38761
52.7516
52.57264
51.91002
50.50596
48.46885
45.8542
42.66579
38.92923
34.66128
29.93341
24.63502
18.96853
12.94421
6.406158
-0.4118269
-7.49459
-15.04334
-22.70056
-30.30899
-38.12612
-46.0918
-54.01807
-62.04035
-69.94531
-77.55031
-84.82241
-91.87182
-98.83358
-105.34
-111.4343
-117.0263
-122.176
-126.9717
-131.0797
-134.4346
-137.1213
-139.1576
-140.442
-140.7326
-140.0293
-138.0454
-134.8811
-130.8017
-127.7378
-125.1281
-119.4515
-145.3128
-179.4915
-159.2621
-113.2828
-86.0063
-75.22968
-64.17731
-41.79956
-19.44682
-52.63756
-125.0107
-137.6372
-120.083
-94.87577
-70.19623
-50.24752
-34.66485
-21.28797
-12.16483
-9.253363
-11.60093
-13.78917
-17.57438
-25.43162
-38.35783
-51.32961
-53.56275
-47.72954
-43.76719
-41.4437
-42.57935
-46.63556
-50.54508
-54.24845
-56.63015
-56.64332
-54.27007
-49.89031
-44.27156
-38.3497
-32.69628
-27.65596
-23.74997
-21.03222
-19.14921
-18.28202
-17.56314
-16.918
-16.3645
-15.88063
-15.25936
-15.03658
-16.25766
-18.80088
-21.89247
-28.85924
-40.87313
-54.99104
-59.19995
-44.92042
-20.9153
0.01618721
-1.467758
-17.34942
-27.99114
-35.33789
-50.74587
-86.14327
-125.8171
-119.9792
-77.69533
-69.23977
-79.07537
-80.77794
-82.97521
-86.29564
-88.8199
-90.07183
-90.6329
-90.10295
-88.75088
-86.38708
-83.46745
-80.33784
-76.47156
-72.09096
-67.07392
-61.73347
-56.00754
-49.87081
-43.73258
-37.55143
-31.01664
-24.2877
-17.69422
-11.26853
-4.86116
1.493687
7.584398
13.58249
19.27236
24.6672
29.63808
34.20539
38.32142
41.99293
45.1776
47.83074
49.86625
51.42379
52.36092
52.72157
52.54578
51.88557
50.48577
48.47946
45.89801
42.74396
39.04802
34.82497
30.15299
24.90235
19.31047
13.34792
6.859528
0.1351321
-6.868393
-14.3774
-21.94554
-29.46087
-37.21788
-45.11369
-52.94397
-60.91644
-68.75872
-76.29728
-83.50967
-90.494
-97.42345
-103.8676
-109.9368
-115.4879
-120.6038
-125.4229
-129.474
-132.8271
-135.5566
-137.5868
-138.8641
-139.132
-138.3292
-136.3113
-133.3062
-129.5624
-126.5856
-124.5552
-120.961
-144.7614
-175.9795
-156.7808
-112.768
-86.02516
-74.72755
-63.26214
-40.96142
-19.437
-54.90652
-129.1773
-139.2155
-120.5244
-94.99157
-70.17915
-50.23692
-34.79902
-21.52325
-12.39732
-9.264647
-11.5007
-13.55588
-17.30411
-25.25878
-38.4676
-51.71446
-54.02277
-47.83479
-43.63794
-41.47646
-42.58591
-46.83068
-50.84497
-54.33139
-56.39117
-56.23922
-53.92172
-49.56417
-43.95554
-38.06331
-32.4595
-27.4319
-23.53808
-20.88938
-18.99866
-18.19747
-17.50664
-16.8781
-16.31315
-15.83492
-15.21986
-14.93659
-16.03918
-18.59387
-21.90935
-29.29048
-41.57937
-56.12611
-60.63983
-46.19317
-22.4021
-1.147308
-1.173955
-16.63325
-27.58758
-35.48826
-50.77101
-84.69095
-121.9672
-116.8361
-79.33289
-71.06825
-78.08616
-79.57742
-81.76889
-84.73251
-87.01845
-87.98465
-88.39643
-87.75513
-86.49694
-84.18716
-81.30808
-78.31553
-74.5372
-70.27387
-65.34199
-60.08645
-54.46262
-48.40138
-42.36874
-36.3127
-29.86729
-23.22023
-16.73448
-10.41054
-4.099946
2.18106
8.161185
14.0895
19.69023
24.99763
29.90063
34.41888
38.47618
42.09505
45.22224
47.85202
49.85105
51.38386
52.31371
52.67026
52.49787
51.83886
50.44514
48.47359
45.93773
42.82849
39.18208
35.01416
30.4036
25.20225
19.71961
13.84444
7.396902
0.7861041
-6.07335
-13.52301
-20.98435
-28.35486
-36.00162
-43.80253
-51.5024
-59.36368
-67.09042
-74.50882
-81.58369
-88.45509
-95.30529
-101.6043
-107.5817
-113.0067
-118.0233
-122.7531
-126.7086
-129.9532
-132.4873
-134.516
-135.8083
-136.1118
-135.5807
-133.7781
-131.1141
-127.8622
-125.1528
-123.757
-121.9012
-141.1037
-166.4666
-150.1079
-111.1635
-85.93543
-74.16572
-62.30873
-40.55756
-21.03291
-58.20709
-134.4474
-141.5658
-121.3675
-95.35009
-70.20818
-50.18647
-34.90157
-21.74874
-12.60788
-9.177776
-11.31019
-13.23412
-17.09329
-25.0963
-38.71167
-52.31455
-54.62131
-48.11614
-43.88086
-41.84396
-43.01615
-47.32536
-51.22378
-54.39657
-56.25319
-55.95288
-53.61285
-49.24726
-43.67107
-37.82127
-32.27479
-27.25879
-23.36919
-20.74076
-18.86233
-18.11738
-17.46536
-16.86348
-16.27187
-15.79498
-15.18581
-14.82624
-15.75797
-18.24759
-21.78807
-29.73787
-42.58029
-57.90729
-62.90959
-48.07897
-24.63345
-3.239262
-1.461673
-16.09464
-27.10503
-35.69987
-50.59211
-80.99119
-112.602
-109.1672
-79.46854
-72.41866
-76.92296
-78.33897
-80.47368
-83.13338
-85.31456
-86.09676
-86.65778
-85.97478
-84.68823
-82.31968
-79.33762
-76.44208
-72.63317
-68.47204
-63.55704
-58.31812
-52.81832
-46.87351
-40.90499
-34.91027
-28.59954
-22.08227
-15.67682
-9.399989
-3.262568
2.94942
8.795235
14.65546
20.13272
25.35213
30.24637
34.66042
38.62816
42.1745
45.24535
47.89729
49.81819
51.32062
52.24046
52.58791
52.41977
51.78053
50.40602
48.42503
45.92351
42.87445
39.29564
35.22295
30.69447
25.51786
20.15272
14.42048
8.060451
1.495572
-5.249276
-12.52446
-19.89535
-27.16264
-34.67329
-42.2881
-49.94377
-57.71792
-65.26117
-72.60527
-79.52517
-86.29315
-93.10976
-99.26701
-105.2176
-110.5216
-115.5149
-120.2995
-124.1603
-127.4219
-130.1693
-132.2525
-133.5375
-133.8218
-133.1671
-131.3708
-128.9353
-126.0758
-123.6213
-122.5537
-121.7092
-135.7572
-155.3024
-141.8719
-109.0712
-85.82628
-73.80722
-61.82601
-41.45056
-25.18191
-63.40266
-140.5656
-145.0914
-122.8737
-96.18249
-70.41112
-50.06418
-34.81026
-21.87106
-12.72314
-8.896232
-10.9512
-12.79603
-16.54696
-24.98298
-39.26059
-53.08271
-55.35327
-48.73926
-44.84603
-42.77094
-44.08055
-48.05517
-51.6713
-54.52417
-56.19151
-55.78114
-53.31747
-48.9508
-43.49914
-37.66896
-32.15078
-27.17218
-23.25896
-20.60893
-18.78361
-18.04704
-17.46895
-16.89626
-16.26108
-15.76724
-15.15
-14.684
-15.3697
-17.72347
-21.43164
-29.97973
-43.71371
-60.77952
-66.45706
-50.92446
-27.91832
-6.50409
-2.590095
-15.86128
-27.0011
-36.90362
-50.36261
-75.88538
-100.8535
-99.73863
-78.33055
-72.86146
-75.4154
-76.78846
-78.70143
-80.92421
-83.05261
-83.27134
-83.68872
-83.01122
-81.86728
-79.74565
-76.5719
-73.86222
-70.1913
-66.20843
-61.2633
-56.10161
-50.95755
-45.17537
-38.97182
-33.15063
-27.23198
-20.87767
-14.30439
-8.149954
-2.410201
3.829545
9.461293
15.29619
20.53725
25.83727
30.7344
34.89441
38.74598
42.19363
45.24436
47.93618
49.72219
51.2421
52.1353
52.46877
52.31621
51.72118
50.33257
48.33457
45.82099
42.84652
39.34843
35.39477
31.06696
25.87486
20.59331
15.03519
9.015698
2.504918
-4.506317
-11.4525
-18.44303
-25.86079
-33.2903
-40.41059
-47.90647
-55.99565
-63.03206
-70.38309
-77.10507
-83.66817
-90.47875
-96.34209
-102.3346
-107.3383
-112.1636
-116.9994
-120.6628
-123.8074
-126.2273
-128.1757
-129.5193
-129.7686
-129.4626
-127.9003
-125.9679
-123.6305
-121.5968
-120.7949
-120.6047
-130.4744
-144.8314
-133.3403
-106.5891
-84.91304
-73.47161
-61.84644
-43.99026
-31.93929
-70.78375
-146.5191
-151.6664
-125.0334
-97.05732
-70.63527
-49.81654
-34.36514
-21.46494
-12.58782
-8.175875
-10.18448
-12.0706
-16.52105
-24.90949
-39.80874
-54.22015
-56.24486
-49.76576
-46.38745
-44.4093
-45.65307
-48.91758
-52.19503
-54.71298
2.441198
1.949348
-29.94915
-17.79984
12.94675
-15.06034
0.7476246
2.46553
12.418
-0.5023522
1.346761
2.94843
0.7169473
1.5532
1.621056
4.388171
-6.768221
-2.463466
1.367708
2.326091
-45.26957
3.464408
3.701798
-0.7493407
1.888735
2.2057
3.011579
-0.3495408
-6.289448
2.187677
2.877703
-14.46784
-0.01858674
3.222487
1.336389
-4.378855
-3.105622
0.5014696
1.208801
-5.708858
-24.44223
3.129207
1.760718
3.844134
34.85982
2.012327
0.8085764
1.888663
-8.189514
-0.1913798
-4.482679
-8.603697
-11.9957
1.059802
0.2645908
24.23888
-6.876442
1.151221
-13.36517
-20.53843
-0.3618586
0.0228917
-22.07881
2.42506
-0.4496985
2.443316
-25.58885
3.062473
3.015459
3.880663
0.7274391
1.102032
12.77723
-85.8567
22.75037
1.721473
5.105843
-2.156221
3.201292
1.342059
-20.81809
0.3269015
4.539429
1.051764
-12.99951
2.28221
0.6606716
2.303287
-28.94751
-0.5456237
-19.81251
22.39417
-7.709259
0.8288343
2.035322
3.230645
-15.53913
6.51448
-31.50906
2.1724
2.811731
2.292339
1.418978
-100.8498
1.63873
-12.7558
0.9486041
1.868058
-1.126064
-12.10076
2.615145
1.161774
0.9869152
8.199634
-17.1419
0.2573429
0.3603082
2.934029
20.27788
1.769116
3.86274
0.8278674
0.5692541
1.811978
4.030849
-2.834299
1.318911
-28.68637
2.298924
1.976453
0.5053323
-9.916618
1.366111
1.685076
1.823768
-28.9234
0.3396519
8.573913
2.779977
0.4522446
-28.12621
1.447943
-74.66814
2.068435
-0.542461
2.645243
2.231549
-48.34518
2.142782
0.8429886
-0.4258828
-14.36288
-58.82336
3.54256
-16.89951
-26.93604
2.260825
1.039095
1.265772
-35.75811
1.590578
-30.92478
-7.702654
1.85439
2.827338
-38.23191
-24.28964
2.951035
-26.45806
4.133291
1.386072
18.49824
3.507834
-30.20062
-5.744241
-13.72179
3.891846
1.892144
-34.63123
-5.251916
16.97901
2.953334
2.998884
1.825116
3.925697
-52.71244
2.404919
1.442968
-12.21534
2.369274
1.253226
2.506467
-11.18382
-0.7446697
1.620964
1.952759
3.546906
1.198189
-6.467135
-37.92886
2.212778
-3.618074
2.26002
-27.92417
-1.582546
-0.3695166
-7.706239
3.435272
-9.384693
-2.38258
2.242718
-1.950406
-11.63625
-1.294468
1.267068
-3.425684
-11.67927
2.323834
3.33512
1.367086
2.993549
-18.54242
4.280975
-6.772736
-1.932575
1.483231
2.574232
8.769698
-0.4415636
20.31574
0.2518008
-14.16707
5.225148
2.057225
-96.74625
1.681023
28.11172
1.060551
3.436537
0.9791352
1.56284
2.5226
2.595534
-5.819531
2.143269
-40.34988
2.471541
-36.95231
0.4997908
1.284686
-37.2792
2.005599
2.385166
2.343674
4.232526
-29.75268
2.078519
0.7084288
-14.94219
-2.857004
-1.201676
0.2705258
-8.322647
-14.08812
0.8341331
3.78063
2.011365
2.102334
6.284077
-29.12536
0.8662225
1.33926
13.61485
0.479284
-1.78346
4.655562
3.140038
-20.52049
-52.5343
1.528155
2.63447
1.929222
3.161902
2.926714
2.714748
1.727658
36.03741
1.177204
3.417305
4.860332
3.356408
4.901713
1.891859
2.420974
-32.69706
0.3730285
-13.96313
-1.645754
2.547094
0.8977353
-48.86228
3.404617
0.4002827
-39.9588
0.6211189
2.357965
5.136583
2.36404
-1.150513
-2.694311
1.329795
2.485639
3.235998
0.9726847
0.7881442
-13.84074
35.45453
-68.97547
-26.81914
-60.33931
0.2141198
-5.486007
2.329841
-6.256287
0.1141939
0.07023268
2.423183
0.3806402
2.149607
1.689752
18.72967
1.303717
-7.993482
-73.5295
2.825405
3.440966
3.230446
-3.430784
-5.001975
-1.700847
-40.0054
-1.269133
1.639082
2.402134
-14.35911
5.050068
-18.89955
1.113336
-11.82282
0.1858297
0.3624312
-5.969151
14.62963
1.158936
-0.2703334
-46.30634
-59.81879
-2.976217
2.032101
2.683504
2.234873
-0.3276142
-4.718809
3.524918
2.379302
3.519505
3.293258
1.835667
2.668465
2.916851
-2.855727
13.95706
-43.33335
2.235962
3.465533
2.162912
1.515288
3.303524
1.432669
2.802279
2.560978
3.117519
2.413354
-8.775445
-0.708143
1.907457
1.778075
38.00951
3.369569
2.913792
-7.031978
1.689621
3.172489
-25.82952
0.6863985
0.1895693
1.844085
-7.226297
2.645684
2.070644
3.398109
2.310216
-32.59813
-4.976392
1.943804
-2.327727
-31.30597
-57.05859
3.587449
2.804595
1.475154
0.9220702
4.95909
2.375406
3.360966
0.4447992
2.690183
-16.38448
1.049759
-38.26423
2.626851
1.922083
5.60594
3.087902
1.08193
-29.35791
1.051903
2.884999
-37.75834
-1.112565
2.580162
0.1842839
-0.1518772
1.615246
3.025551
2.59622
4.280381
-5.601565
1.615303
2.309592
2.621153
6.677797
1.513212
1.972937
-4.562266
2.244447
1.425391
-1.392639
-16.09956
0.8909342
2.577939
-42.3922
1.487802
-5.404868
2.622573
-1.087626
0.5632296
6.005883
1.952078
-23.22358
2.039058
-32.30546
2.118232
2.818963
2.274534
3.637788
26.52468
1.866946
5.220985
-0.8099457
-10.89235
0.5621928
2.199084
8.9257
-3.957274
-4.330929
-6.295417
-29.20823
-0.3350009
1.667927
-22.42624
-0.6298924
2.607092
1.869486
0.8307862
2.706853
-0.8277505
17.57267
0.3804058
3.304447
3.573906
-27.16274
1.1841
-1.235449
-20.99862
2.574292
1.64862
4.95756
2.716375
4.901955
3.14305
1.887412
0.8567993
-4.689975
3.294627
2.042788
2.399356
-5.943353
-7.216923
-4.203808
-26.60864
5.666822
17.15547
-1.54609
2.798517
2.868644
2.390779
3.599116
1.024859
1.537799
2.640207
1.868162
-4.680838
-0.3191848
1.862463
1.4545
1.109285
3.161375
0.8777569
1.043122
-30.05556
1.099974
-27.57934
0.4778713
5.306185
5.430652
4.470217
0.6898038
2.377573
0.9663727
5.390379
2.34952
1.279259
1.918515
-39.30197
3.976068
4.762576
1.35999
1.208424
8.537655
2.730457
5.399484
-3.32543
-2.635842
-7.911448
5.465775
2.631854
-6.530768
16.96095
-1.721282
0.8712949
0.5183651
1.482361
1.591711
0.5394614
1.728128
2.59714
9.953831
32.93564
-3.507218
2.233449
6.97108
4.327103
-69.52623
1.360174
4.139369
1.687276
4.30054
2.740601
3.531154
-1.188817
3.442929
7.071242
1.286518
-6.969685
-25.73587
2.471864
1.413022
-92.28201
-3.844992
0.6477809
-12.70721
2.492424
0.2403917
1.895157
0.7693158
2.634608
-46.34339
1.409385
2.194411
2.18103
1.994299
0.9013228
2.234757
1.691318
-11.45695
-4.672464
1.864512
-15.75778
0.8680595
5.577448
3.509396
-32.38188
1.567893
9.95848
-10.10186
0.7134556
2.356397
-5.247512
5.464455
1.281216
-4.737178
2.394598
0.3958422
1.711962
18.92427
3.704999
1.441486
3.119938
-1.534293
0.7215649
-21.13886
-16.45998
-28.20521
-50.71426
-9.444114
-11.15314
2.439136
0.2830064
1.929311
2.115979
-4.406518
1.585198
-13.13
3.433194
1.647478
2.224224
-55.56428
2.65687
26.59658
5.568864
-25.71863
-2.003931
2.750689
8.019
-2.360629
-15.0329
1.524508
3.03435
-7.230705
2.166386
2.666902
1.437701
2.899704
2.971322
0.2098584
-29.65595
4.021938
1.85733
-0.1365587
1.700833
1.577074
-99.98718
2.49712
1.524504
6.625082
-29.00605
-0.8046127
1.038765
5.754332
14.69352
9.226047
3.30183
-6.446214
1.835325
-4.069838
2.566791
-2.457478
4.031121
2.73667
-16.50676
1.117726
-55.36938
1.483099
3.084166
1.879185
-47.66161
2.867601
2.382408
2.178499
1.202477
-12.80523
3.036632
-0.6557607
4.980602
-27.15705
3.472564
2.172744
-15.804
-17.07133
1.937067
1.539433
3.250586
0.9836552
-0.08286999
1.238251
2.986399
-56.21973
3.031953
-3.480593
1.249828
0.7630445
1.244899
2.01561
3.413769
2.570324
1.867957
-30.1083
1.906668
1.867289
2.640146
2.430586
2.528725
2.000791
3.090885
2.003709
2.211475
5.514304
-20.64994
2.611953
2.351881
-0.8980256
1.599236
1.658142
2.85684
3.626653
-58.48909
4.038806
5.271564
10.52328
-0.09638913
-4.843222
-7.000513
-11.17975
0.5432439
-4.92941
0.3316781
-5.472841
-11.77605
-6.204384
-4.186842
1.711557
3.550781
13.35657
2.298989
2.593312
-33.99795
0.6967833
2.590718
2.135472
-12.00125
24.19049
5.278293
1.078412
3.803709
2.680678
2.513526
0.8202417
1.346361
2.230226
3.0441
-0.785039
1.615323
2.327789
4.608649
2.668668
1.227212
-3.811313
2.822581
1.225175
0.2658193
13.20117
31.91675
-3.256838
0.9333488
1.781537
2.082102
1.070286
2.349534
-69.41527
1.62149
-78.85267
-2.517908
0.7583044
-4.80136
1.157769
-1.262134
1.630829
1.141646
1.595579
1.630378
-2.647384
-44.14231
3.086947
-0.3064448
2.139105
2.297969
0.1112077
3.838818
-11.69961
-2.686862
17.18388
3.085564
1.824673
1.006173
0.8910112
2.978056
2.013556
6.382512
2.248959
-21.63256
1.892907
9.309739
-35.80996
2.869457
0.5240751
-2.109451
2.44626
1.876458
2.688452
1.577892
2.079028
3.125112
4.700393
3.430157
4.174665
4.94524
0.715481
-6.801898
30.56406
1.935349
-1.254946
-0.8375773
-54.4429
3.315776
1.889751
1.845655
2.686321
33.00725
0.8505085
2.444949
-0.02731037
1.930879
-5.489219
2.876702
1.669208
1.740152
-13.87246
-17.44976
1.518261
1.099412
-8.203397
0.6380438
0.8545826
1.563655
-12.82413
6.433504
29.57644
-1.803626
2.504316
0.3069764
-7.159552
-4.697079
12.67741
-0.7466085
2.052815
1.173872
0.6601991
2.373777
1.243595
0.7694202
-2.801029
-13.23337
-19.97378
4.504728
-13.90879
1.037065
2.984895
3.240541
7.505746
-4.157666
-2.299171
2.947624
8.871887
-22.51837
7.528478
2.128533
1.870164
-5.157234
29.97727
-11.63709
3.116169
0.4250044
-45.01986
4.470612
0.6562009
5.384052
1.658505
1.155965
-19.00376
-0.006476386
3.054886
-9.21764
0.05141394
0.3112569
-32.38182
-13.01968
-40.1592
4.392174
-50.06975
1.771978
0.8341675
-11.5923
1.821089
-0.7943152
-36.75816
0.3065695
1.289903
-2.048952
2.982554
0.9462552
-38.2139
-53.92903
3.550804
18.81594
1.519801
0.6243846
-11.40003
15.79533
-18.48983
0.3486527
1.572777
4.127201
-3.602551
0.3277138
-14.04539
-0.04229534
1.912605
2.111591
-74.31634
-92.17449
1.478069
1.985838
4.065081
0.905275
2.402504
4.12439
1.635273
0.964556
2.717597
2.547646
0.7382172
7.21163
1.778816
-16.62825
1.621909
1.864735
-33.84
2.447222
1.831274
1.258008
-33.6578
-0.6812437
-2.119874
4.158492
-7.103388
-27.45377
36.53021
49.1522
2.457333
2.773877
0.3562105
7.657472
2.445831
0.3750213
11.19414
-39.22117
2.524029
2.353328
0.1000544
3.537187
1.910874
1.04431
-2.071822
-16.20811
-65.73374
2.146651
3.312765
1.840911
3.035957
3.534553
-17.05151
1.570958
1.930868
1.945037
2.415477
2.957807
2.559376
-25.85616
-14.0197
2.488747
2.801188
2.848476
2.538964
-5.5769
2.630192
0.4412588
-26.06763
1.399005
-19.78085
-74.20243
0.5999173
0.1715914
-71.59949
-59.54511
2.813864
3.150518
2.741193
1.567867
2.469764
-0.6748894
1.121675
2.042471
2.42407
-1.717281
1.593965
-0.9410878
1.158743
3.406946
2.399189
0.9452491
0.7788752
2.464536
1.994109
1.160074
2.51802
-3.720583
2.446567
1.241361
5.20477
0.04883978
3.363299
-0.3685885
0.2373982
-12.61026
-16.69134
-14.13871
5.056777
2.118521
0.3723052
3.158165
-34.07506
-13.76674
9.64304
-37.30842
24.099
3.370183
3.794882
-24.11745
-24.45193
0.46607
4.642082
-49.25792
-1.902966
1.320073
-25.29393
0.8176959
8.014685
2.426425
2.285928
18.96403
3.243181
-27.32049
3.151785
-4.271974
35.17989
-13.62491
-7.878807
1.993801
3.718638
2.528537
9.145554
2.887666
8.235678
1.960158
2.402358
-3.135883
2.153065
-2.191965
1.913059
-13.02329
2.751868
-56.67771
9.505097
3.849956
19.66973
2.574576
29.56183
-4.057175
2.076505
4.216446
2.287779
14.64494
-17.23765
-23.80457
2.893491
1.457418
1.648578
1.737156
4.534885
-4.709193
-2.665535
0.8210622
-22.83003
0.8601577
15.96545
-30.44203
2.826814
-31.4336
-9.605806
0.2175852
-38.21774
38.29114
-0.2919947
2.478916
-45.42008
3.006028
0.9741768
1.626948
-0.1060729
-12.70197
-96.29403
-10.26315
1.552288
2.057119
2.502189
1.574886
3.446403
3.517266
10.5515
5.084764
2.331869
1.581867
1.586173
-6.069445
-13.99053
-0.04820459
2.936582
2.642913
-35.78282
0.08464768
3.712201
1.126434
-1.367956
-22.62391
2.833052
1.030122
3.288499
1.576682
4.079939
-8.333382
1.576351
2.64733
-68.32587
23.36052
-2.140804
1.514253
4.972292
-0.6991793
1.93302
1.496789
1.028484
1.188119
3.782158
-12.43678
1.8499
-17.59841
2.655093
-9.731233
0.7686568
2.254388
0.2085743
1.353978
-18.73246
-11.09271
-41.82449
-8.356883
1.049773
-5.121347
0.5390735
-0.2999973
1.505189
-30.28739
3.254948
1.755653
2.445865
-3.250453
1.205213
-2.841129
3.551473
-43.32582
3.59002
1.01948
2.912185
-54.40781
3.073134
-40.4281
2.576089
2.994496
1.112106
1.075092
4.349543
-38.05363
-52.31586
0.9563644
1.327925
-11.77335
0.4808012
4.503925
3.859232
2.492993
2.449236
3.174719
2.054884
-51.19784
-6.251349
-8.815914
1.448428
2.10171
0.03434272
1.350264
2.780995
1.866497
-5.028255
1.131604
1.98874
7.968151
2.501685
-15.56351
1.935129
3.666673
-0.6459663
-17.20698
2.461005
2.060798
0.2012364
-20.68496
-15.61103
-4.842646
2.845176
-25.45637
3.06286
-7.558083
-2.664566
2.495904
17.34657
-0.2784208
-11.72705
-84.17441
0.8269987
0.3707015
-1.680131
1.198953
-0.7108019
0.149348
-0.5608448
-1.170462
1.569133
-17.32827
1.062398
2.700752
-4.265099
3.374237
-0.4873532
1.818894
-2.821526
2.520616
1.158975
-20.80729
2.262912
4.175674
2.78761
6.179573
-28.30422
2.433917
0.8012543
3.471432
3.291292
-4.535076
-25.5042
-0.05598203
2.94901
1.552817
3.242762
13.68906
-65.89378
-10.8125
0.9089453
0.4958113
21.77025
-2.934475
1.748445
2.744277
1.459764
2.832749
-34.08872
-35.97479
-22.50364
9.916181
7.663755
5.120231
-64.34227
-54.46916
-83.24525
3.604712
-0.2164701
2.014934
2.583491
0.8922748
5.595582
1.421826
5.37042
2.42125
2.675204
2.358712
1.358434
-31.92824
1.573841
3.019936
0.3230703
-51.74345
20.71725
0.4080772
-28.14426
-41.82163
-3.867041
4.72627
-7.435399
-2.243241
-14.97489
-76.89414
1.086362
-22.30842
2.047415
-40.96294
-14.05518
-0.1906376
1.285404
-16.13901
1.750255
15.27777
1.272965
0.9683597
3.973467
2.370742
1.512754
1.222066
1.435736
2.387676
2.589402
-49.28564
0.6755131
1.844713
-0.03616761
2.031877
2.259412
-21.04855
-4.457614
-32.76552
2.305273
3.46979
20.62454
6.076643
1.908985
-15.05873
1.881556
-64.07839
0.1298858
1.056997
2.278284
2.048553
-2.247039
-4.621895
3.152511
-3.662142
0.8345341
2.701971
4.039443
25.3906
2.719221
-9.92373
1.675197
-18.83382
2.529506
-90.33161
2.559594
2.480709
4.775306
3.459647
-1.22346
-64.13373
-67.14099
-58.35049
-2.536616
-8.384182
-77.30211
3.210789
-0.1068477
1.67073
1.735089
-15.97807
-42.28097
1.8805
-51.24566
1.044352
2.418246
0.9585904
-9.814935
10.20263
1.34931
2.339031
2.032876
3.630736
0.1066792
14.9444
2.200712
-39.37243
1.750059
1.984587
0.6967612
2.819811
-4.309714
-0.1292466
3.726668
-12.28558
3.269163
2.739382
8.240988
2.121357
0.9757529
-5.798697
-4.256485
2.280406
1.950219
0.9092458
0.05918052
0.6389358
-81.79346
27.20427
-1.966561
1.297687
1.554781
-36.53572
2.704965
3.359515
-0.8187839
3.053652
0.6722727
1.488643
2.964327
-5.184406
-0.07483359
22.13361
37.70955
2.2243
-4.362941
-0.4215017
3.115789
1.795639
-0.6452951
34.84726
-66.10748
4.282599
6.241253
2.206235
-31.44349
3.11194
-2.050829
3.973296
0.9862221
2.798733
15.77346
1.799096
3.287493
1.823911
-15.32857
-15.59725
-2.455498
0.4771448
-89.25808
26.42728
-8.213212
0.9521682
-3.879554
0.1573099
1.212967
3.994108
33.07285
1.79645
-5.05221
-25.14116
2.339459
0.4688695
-25.17915
2.030207
-2.381766
1.633229
1.959353
20.3428
-8.934794
2.101746
1.019524
1.254466
-17.25273
19.78158
4.030547
5.604865
-56.48543
-13.66679
1.466917
0.6428648
-43.83697
2.801723
-46.94709
4.439677
-4.165594
0.2109938
2.557077
-26.27
-18.61828
-1.219928
-9.985883
-0.03573184
0.6346508
1.801978
1.630766
-69.73841
-20.44467
-0.2494792
4.836817
0.1380644
3.592816
2.552554
1.233359
1.816912
-0.1044402
-89.82969
-12.4618
-1.976297
-1.143246
-81.26048
3.555501
3.572108
-12.60655
4.47153
5.877744
3.239667
36.28035
5.564453
2.032916
2.685093
2.702197
-16.15124
-16.99708
-28.57646
15.93554
1.868218
2.133822
1.829173
1.839542
0.6410784
1.378006
1.321854
2.467352
0.8919239
0.8957159
0.9389933
2.982917
13.05208
8.587758
-7.826057
3.431929
-1.413804
-0.8634348
3.361102
-13.10215
13.49737
-53.77641
-10.67201
2.360071
1.660966
-87.57327
44.16909
-103.1923
3.531166
2.026297
5.793281
-25.49604
10.86521
-26.72559
0.716436
5.3019
0.8293378
3.31401
1.946028
1.026849
-0.0130772
-36.32731
4.365607
0.976588
-0.1985221
1.918171
-49.7129
-20.2202
-8.177626
3.05994
16.80239
2.551704
2.503816
2.32209
0.8330657
-93.78421
1.586114
4.418858
34.28965
1.653822
1.874691
2.378917
29.24216
8.662074
0.7463265
4.011644
-4.327737
1.903982
2.022492
-61.00206
1.1828
-70.52703
2.032457
2.68126
46.12757
2.82567
2.144019
2.639029
3.661826
1.202318
3.070525
-13.44129
42.22514
2.885461
0.7598451
46.86351
4.242887
6.76297
4.553192
-25.02347
2.921816
0.8722077
-5.081237
0.4035785
-6.100289
-68.47136
2.361736
2.339099
1.096778
1.987869
20.58329
3.162182
1.666062
1.891068
1.522587
0.9282419
0.8010747
0.912696
1.534105
2.82833
3.357825
-15.49964
-46.00513
-28.17751
-18.72302
1.352408
-0.8434439
5.663647
0.9792384
1.620205
4.986795
-13.78916
-6.150801
28.15075
-23.89704
1.899809
-4.186667
2.36405
-1.896889
-16.33481
-4.728991
2.998248
-62.0203
3.845434
0.3436566
2.174325
1.733636
2.510074
0.9967232
1.468615
2.063671
1.479791
2.115095
3.92069
-8.410712
1.018826
2.047317
2.365378
-34.82468
-13.76719
2.264486
1.176119
1.315297
-9.309445
-19.88446
1.340148
1.910173
3.730523
2.719079
10.02228
18.15729
1.039595
0.2116074
2.343684
10.45471
-83.5492
-71.28157
2.453161
-5.2576
2.066753
-1.742399
13.80997
2.638513
-0.9850283
2.547149
1.820241
-0.3802582
-1.1471
-1.81683
0.07012164
2.193515
29.60093
3.727005
-4.171202
3.715706
3.41824
3.180363
-16.86001
3.65024
4.105254
-13.66193
0.8035282
3.70039
-15.92967
1.565535
7.449243
10.1888
2.412749
-43.35697
2.774854
38.92325
3.759102
8.613147
2.377129
-12.39015
3.206734
3.294403
0.2883133
23.14298
2.829983
2.94889
-1.330719
2.295945
-29.75852
1.631411