/*--------------------------------*- C++ -*----------------------------------*\
| =========                 |                                                 |
| \\      /  F ield         | OpenFOAM: The Open Source CFD Toolbox           |
|  \\    /   O peration     | Version:  2406                                  |
|   \\  /    A nd           | Website:  www.openfoam.com                      |
|    \\/     M anipulation  |                                                 |
\*---------------------------------------------------------------------------*/
FoamFile
{
    version     2.0;
    format      ascii;
    arch        "LSB;label=32;scalar=64";
    class       volScalarField;
    location    "0.56";
    object      p;
}
// * * * * * * * * * * * * * * * * * * * * * * * * * * * * * * * * * * * * * //

dimensions      [0 2 -2 0 0 0 0];

internalField   nonuniform List<scalar> 
15536
(
-17.18057
-14.16042
-12.57544
-12.35827
-14.20671
-16.74431
-19.71647
-22.62824
-24.52885
-24.95079
-24.91619
-24.93876
-24.21224
-23.19345
-22.62082
-22.04681
-20.77058
-18.45034
-15.53041
-10.9779
-7.648024
-6.637855
-5.799716
-7.008136
-12.58879
-20.42118
-32.16445
-54.07846
-93.2715
-123.4114
-109.9343
-47.48609
-21.39687
-36.63367
-55.91349
-78.88504
-105.1601
-110.7498
-93.72876
-84.57153
-86.56104
-90.88896
-94.93182
-97.1647
-98.07874
-97.74142
-96.41624
-94.07562
-91.20904
-87.9655
-84.04031
-79.53511
-74.42255
-68.92951
-63.00903
-56.73892
-50.43272
-44.00689
-37.23965
-30.30835
-23.48526
-16.77785
-10.08978
-3.47881
2.923895
9.205742
15.20665
20.8995
26.18445
31.05572
35.47206
39.43179
42.89889
45.80174
48.10013
49.89111
51.04368
51.60361
51.61319
51.14674
49.92259
48.03009
45.55488
42.49908
38.88318
34.73009
30.11184
24.94282
19.39029
13.50432
7.130798
0.4606298
-6.428679
-13.72586
-21.1506
-28.49349
-35.97865
-43.58249
-51.11622
-58.65192
-66.0289
-73.06277
-79.70725
-86.03943
-92.18027
-97.81618
-102.9174
-107.429
-111.3574
-114.7627
-117.3519
-119.0235
-119.7607
-119.5338
-117.9888
-114.5944
-109.0272
-102.7235
-97.45241
-96.589
-125.6257
-145.1994
-117.9322
-77.67754
-53.39559
-36.73858
-14.84692
-17.42511
-91.28074
-128.1625
-102.4324
-60.49888
-32.44332
-17.46278
-6.228722
3.445323
7.840811
6.71362
5.817902
2.749047
-3.012012
-10.50994
-16.93794
-19.73101
-18.31267
-18.20397
-21.81031
-25.47549
-26.47949
-25.10884
-26.2354
-28.16121
-30.03921
-30.63822
-28.89926
-25.38368
-21.268
-17.1472
-14.15375
-12.58274
-12.36972
-14.20885
-16.72371
-19.67302
-22.57423
-24.49977
-24.9387
-24.91957
-24.94271
-24.22041
-23.20092
-22.622
-22.04511
-20.77231
-18.45254
-15.53685
-10.96935
-7.623879
-6.600754
-5.749833
-7.024405
-12.62944
-20.43039
-32.10419
-53.95542
-93.12589
-123.4072
-110.1983
-47.54611
-21.33458
-36.7795
-56.05474
-78.92328
-105.2668
-110.7255
-93.58332
-84.53631
-86.32714
-90.31946
-94.05198
-96.02532
-96.8242
-96.44409
-95.10161
-92.75552
-89.89278
-86.67143
-82.77444
-78.30596
-73.23314
-67.78583
-61.91884
-55.70495
-49.45616
-43.0929
-36.39322
-29.52608
-22.76811
-16.12688
-9.504249
-2.956373
3.387673
9.607397
15.54745
21.18455
26.41834
31.24145
35.61479
39.5367
42.97077
45.84797
48.12476
49.90037
51.0441
51.60061
51.61062
51.14738
49.93249
48.05785
45.60643
42.57985
38.99889
34.88683
30.31434
25.19668
19.70252
13.87468
7.564575
0.9648326
-5.85976
-13.08828
-20.43601
-27.70337
-35.11517
-42.64217
-50.09987
-57.56106
-64.86561
-71.82812
-78.40702
-84.68168
-90.77004
-96.35374
-101.4114
-105.8837
-109.782
-113.1705
-115.7514
-117.4316
-118.192
-118.0202
-116.5982
-113.4661
-108.2706
-102.345
-97.31082
-96.48851
-125.4109
-145.1727
-118.0065
-77.70688
-53.50184
-36.89433
-14.99991
-17.452
-91.49348
-128.3038
-102.2568
-60.31936
-32.33768
-17.44377
-6.268683
3.410302
7.864308
6.775597
5.870758
2.790857
-3.008082
-10.51222
-16.93841
-19.73319
-18.30494
-18.19047
-21.82618
-25.4895
-26.47803
-25.09824
-26.23366
-28.14595
-29.97096
-30.51813
-28.75076
-25.26431
-21.19451
-17.13533
-14.16187
-12.60565
-12.39845
-14.22579
-16.71498
-19.65076
-22.55655
-24.49437
-24.9584
-24.93833
-24.93664
-24.21796
-23.21261
-22.62608
-22.0557
-20.79037
-18.47103
-15.56199
-10.98431
-7.621183
-6.584572
-5.75046
-7.102099
-12.72954
-20.46345
-32.03627
-53.89135
-93.321
-124.1916
-111.71
-48.08068
-20.97222
-36.69733
-56.07229
-79.01448
-105.4312
-110.8128
-93.85627
-84.541
-86.05705
-89.73344
-93.20653
-95.13227
-95.99717
-95.6385
-94.33258
-92.00564
-89.15514
-85.95997
-82.07577
-77.63036
-72.57734
-67.16263
-61.33501
-55.13635
-48.91458
-42.59092
-35.91673
-29.07891
-22.35227
-15.74866
-9.162382
-2.643861
3.659823
9.851353
15.75844
21.36506
26.56982
31.36556
35.71161
39.60894
43.02077
45.88151
48.13965
49.90346
51.03964
51.59231
51.60306
51.1431
49.93528
48.07543
45.64143
42.63517
39.0782
34.99249
30.45013
25.35876
19.89809
14.10535
7.825405
1.263181
-5.520184
-12.71477
-20.02451
-27.24773
-34.62481
-42.11754
-49.53111
-56.96848
-64.23833
-71.17096
-77.71611
-83.95018
-90.00926
-95.5606
-100.5974
-105.0483
-108.9232
-112.2967
-114.8552
-116.5051
-117.2363
-117.0397
-115.5495
-112.4238
-107.4857
-101.888
-97.08464
-96.83991
-125.6882
-145.59
-118.3361
-77.83176
-53.52607
-36.85994
-14.86031
-17.85827
-93.27693
-129.5161
-102.5217
-60.28821
-32.25512
-17.44778
-6.369931
3.305948
7.850869
6.778018
5.892069
2.810373
-3.029307
-10.5422
-16.98341
-19.79839
-18.37166
-18.1838
-21.88984
-25.56313
-26.49804
-25.09266
-26.22472
-28.18679
-29.98702
-30.48909
-28.69405
-25.20113
-21.15605
-17.13994
-14.1898
-12.65145
-12.45279
-14.26486
-16.71744
-19.63416
-22.53249
-24.49295
-25.00061
-24.97163
-24.89289
-24.18205
-23.218
-22.63182
-22.08082
-20.83078
-18.50452
-15.61333
-11.03718
-7.673521
-6.585562
-5.735994
-7.223388
-12.8599
-20.48644
-31.94362
-53.89509
-93.88638
-125.3681
-114.3483
-49.31392
-20.58866
-36.22863
-55.72729
-78.51897
-104.2123
-109.5132
-93.74849
-84.63543
-85.67268
-88.87891
-91.9824
-93.66684
-94.35702
-93.93746
-92.64278
-90.33158
-87.50244
-84.35258
-80.52687
-76.15122
-71.16519
-65.81731
-60.06677
-53.94687
-47.79847
-41.55898
-34.97896
-28.2143
-21.56293
-15.04125
-8.535331
-2.086108
4.139699
10.26462
16.10545
21.65527
26.80332
31.5467
35.8468
39.70516
43.08259
45.91936
48.15102
49.90016
51.02756
51.5759
51.58802
51.13112
49.92967
48.09043
45.68088
42.70384
39.18347
35.14122
30.65116
25.60827
20.2137
14.48652
8.269581
1.791612
-4.913782
-12.0412
-19.25387
-26.38477
-33.68094
-41.07702
-48.3953
-55.74243
-62.92011
-69.75188
-76.20057
-82.36111
-88.34523
-93.80762
-98.7716
-103.1456
-106.9805
-110.313
-112.8285
-114.456
-115.1972
-115.0714
-113.7768
-110.8841
-106.3434
-101.2411
-97.08057
-97.92683
-125.9148
-144.9907
-117.8795
-77.7835
-53.37823
-36.42763
-14.33569
-18.92522
-96.85249
-131.6922
-103.2514
-60.38861
-32.18704
-17.46014
-6.498594
3.12768
7.805056
6.792579
5.842204
2.79221
-3.081665
-10.61633
-17.08522
-19.94123
-18.56265
-18.13826
-22.0131
-25.73177
-26.57002
-25.12014
-26.26993
-28.29762
-30.01889
-30.35919
-28.60096
-25.12429
-21.12513
-17.17025
-14.24378
-12.73026
-12.54333
-14.33508
-16.73921
-19.63562
-22.53508
-24.51721
-25.06104
-25.01847
-24.81768
-24.09983
-23.21446
-22.64362
-22.12745
-20.90898
-18.56826
-15.711
-11.14844
-7.789714
-6.556491
-5.646776
-7.323983
-12.972
-20.45939
-31.81711
-53.98663
-94.93603
-127.2998
-117.8342
-51.38265
-20.8788
-35.73098
-55.15746
-77.03883
-100.161
-105.2821
-92.40024
-84.6054
-85.19122
-87.9827
-90.81981
-92.35978
-93.11683
-92.71043
-91.43541
-89.13095
-86.25491
-83.15284
-79.3179
-74.97218
-69.99745
-64.69308
-59.0011
-52.90281
-46.80164
-40.64064
-34.12081
-27.40094
-20.81051
-14.36715
-7.93068
-1.533319
4.615431
10.68585
16.46391
21.9557
27.04248
31.73684
35.98965
39.8062
43.14092
45.9505
48.15255
49.88434
51.00267
51.5464
51.56045
51.10444
49.90662
48.09657
45.7196
42.77594
39.29498
35.29663
30.86113
25.86489
20.54359
14.87786
8.708864
2.321444
-4.304688
-11.39246
-18.51918
-25.55865
-32.79609
-40.12477
-47.35325
-54.6499
-61.76925
-68.5394
-74.93301
-81.03512
-86.99098
-92.40045
-97.34939
-101.699
-105.5124
-108.8804
-111.3596
-112.9857
-113.7311
-113.5887
-112.2472
-109.4397
-105.1935
-100.5191
-97.24404
-98.98152
-123.5282
-139.6074
-115.0339
-77.18698
-53.0707
-35.80244
-13.88287
-21.09893
-101.7988
-134.9403
-104.6232
-60.63646
-32.0905
-17.46219
-6.625879
2.926246
7.781634
6.858899
5.725507
2.703409
-3.167259
-10.7703
-17.28
-20.19015
-18.90746
-17.99518
-22.16963
-26.01863
-26.74058
-25.25216
-26.45759
-28.47523
-30.07486
-30.33105
-28.54817
-25.06675
-21.11759
-17.23844
-14.33568
-12.8672
-12.69582
-14.45455
-16.79308
-19.66474
-22.57227
-24.57533
-25.1414
-25.0935
-24.75252
-24.00971
-23.20774
-22.67487
-22.20834
-21.04719
-18.66895
-15.87037
-11.34329
-7.950346
-6.394873
-5.364707
-7.327117
-13.00249
-20.33622
-31.69138
-54.22877
-96.30591
-130.0137
-122.0075
-54.60994
-22.90145
-36.27605
-54.93002
-75.26213
-95.37621
-99.97198
-90.252
-84.17477
-84.39789
-86.72525
-89.19605
-90.40899
-91.03369
-90.47209
-89.26568
-87.00221
-84.16267
-81.1901
-77.43098
-73.19538
-68.29821
-63.07212
-57.47758
-51.4513
-45.45316
-39.41055
-32.97693
-26.33676
-19.85246
-13.50664
-7.165613
-0.8407452
5.198732
11.19998
16.88973
22.29319
27.31334
31.95868
36.15232
39.91547
43.19138
45.97705
48.14133
49.84745
50.9582
51.49617
51.51176
51.0553
49.86348
48.08506
45.75211
42.85183
39.41907
35.47488
31.09922
26.15064
20.93511
15.35566
9.225845
2.946136
-3.540582
-10.5689
-17.59567
-24.49724
-31.62993
-38.86692
-45.97722
-53.16846
-60.17993
-66.84068
-73.10864
-79.10844
-84.9948
-90.27558
-95.14445
-99.38037
-103.1057
-106.3884
-108.79
-110.3184
-111.0662
-111.0806
-109.9353
-107.3875
-103.5959
-99.45743
-97.06817
-99.07972
-118.1692
-130.5915
-109.9391
-76.15155
-52.91441
-35.76797
-14.49839
-25.06014
-107.8386
-139.2223
-106.8478
-61.16361
-32.0301
-17.43671
-6.709169
2.755512
7.925702
7.103172
5.610184
2.462471
-3.295106
-11.03984
-17.63406
-20.59554
-19.43947
-17.71157
-22.25046
-26.38343
-26.98603
-25.57524
-26.81172
-28.70697
-30.13849
-30.30427
-28.55052
-25.04107
-21.14082
-17.38192
-14.50741
-13.11558
-12.96818
-14.65564
-16.89813
-19.73117
-22.66375
-24.69048
-25.25393
-25.22045
-24.72716
-23.93108
-23.20025
-22.743
-22.34266
-21.26665
-18.82296
-16.10129
-11.62737
-8.11063
-6.003881
-4.809948
-7.168702
-12.87849
-20.0815
-31.70261
-54.76937
-97.33584
-133.0966
-126.0027
-59.55235
-27.14972
-38.0006
-54.96382
-73.35609
-90.79335
-95.02259
-87.99044
-83.43051
-83.46566
-85.40842
-87.63697
-88.55721
-89.22459
-88.68133
-87.44633
-85.1271
-82.18933
-79.30908
-75.52916
-71.39659
-66.51654
-61.30699
-55.83733
-49.92616
-43.98832
-38.00552
-31.70723
-25.19508
-18.78863
-12.48826
-6.320423
-0.06345431
5.842535
11.77557
17.34186
22.65827
27.67147
32.21056
36.31367
40.00284
43.22258
46.03166
48.11378
49.78845
50.88971
51.41645
51.43406
50.99272
49.81787
48.02923
45.73015
42.88768
39.52066
35.66985
31.37489
26.45028
21.34832
15.90936
9.866244
3.630826
-2.747747
-9.605913
-16.54417
-23.34815
-30.35176
-37.40805
-44.47655
-51.58951
-58.42699
-65.01935
-71.14522
-77.05147
-82.91121
-88.06714
-92.91968
-97.05881
-100.7826
-104.1462
-106.5054
-108.1278
-108.9804
-108.8996
-107.7793
-105.3881
-101.9791
-98.31272
-96.54046
-98.39111
-112.3862
-121.5455
-104.3396
-75.09933
-52.96274
-36.61213
-17.22309
-31.61265
-114.2923
-143.8482
-109.8742
-62.17227
-32.47345
-17.3567
-6.627999
2.654166
8.363962
7.628391
5.55954
1.980569
-3.584414
-11.41619
-18.22636
-21.20582
-20.13345
-17.23586
-22.12733
-26.4415
-27.19236
-26.09875
-27.29372
-29.0048
-30.25878
-30.34671
-28.65389
-25.04723
-21.21472
-17.66316
-14.8289
-13.50412
-13.40198
-14.95799
-17.08871
-19.89093
-22.83282
-24.91028
-25.40862
-25.4516
-24.77616
-23.88144
-23.23807
-22.87943
-22.55141
-21.5313
-19.12283
-16.46704
-11.94934
-8.277979
-5.361384
-3.9314
-6.677786
-12.53041
-19.66694
-32.23658
-54.78329
-97.94226
-136.3128
-128.7766
-65.06522
-33.29722
-40.80686
-55.14545
-71.17942
-86.1879
-90.36445
-85.49544
-82.20355
-82.09381
-83.549
-85.59993
-85.89774
-86.50176
-85.82754
-84.71439
-82.63116
-79.46929
-76.78248
-73.12334
-69.15847
-64.24389
-59.11182
-53.98994
-48.23497
-42.05608
-36.25467
-30.3404
-23.98627
-17.40438
-11.23564
-5.460259
0.8269899
6.519939
12.42771
17.75729
23.16427
28.17042
32.45523
36.44105
40.03031
43.2364
46.08342
48.02367
49.71536
50.7895
51.29998
51.33176
50.92479
49.7288
47.93301
45.62698
42.85412
39.5629
35.8259
31.72643
26.78744
21.76889
16.49586
10.77312
4.604736
-2.029038
-8.586546
-15.14538
-22.09432
-29.02178
-35.62364
-42.51665
-49.93797
-56.30228
-62.90106
-68.84562
-74.56736
-80.42516
-85.3197
-90.21516
-94.09629
-97.68808
-101.0938
-103.2876
-104.7679
-105.3813
-105.6963
-104.8035
-102.6753
-99.753
-96.61747
-95.45425
-97.18502
-107.148
-113.2186
-98.39307
-74.03265
-53.38682
-38.66045
-22.4157
-39.95164
-120.2868
-147.7739
-111.5763
-63.25033
-33.47561
-17.45954
-6.050942
2.873204
9.348176
8.4515
5.519033
1.261775
-4.370983
-11.81313
-19.1004
-22.13971
-21.02398
-16.72256
-21.59858
-26.04126
-27.2646
-26.79211
-27.90283
-29.40246
-30.4836
-30.52138
-28.90008
-25.04014
-21.42825
1.031147
0.3726892
-33.68228
-33.95551
10.72445
-27.95715
0.3071807
-0.7945382
9.586176
-2.932945
-4.547483
-0.2409794
-1.87094
-0.3933221
-0.4788407
1.820753
0.2883044
-3.869004
-0.0254084
-1.177996
-102.0721
0.0355722
1.022232
-2.970941
0.07634126
0.3521654
-0.579864
-2.133185
-8.488256
-0.05596529
-0.1000305
-23.60001
0.3212792
0.02239022
0.08473833
-5.484022
0.06804387
-0.08508345
0.04208557
-6.402896
-20.05538
1.394614
0.145071
2.969401
32.49623
0.02426111
0.01377334
0.2042164
0.4285372
-2.470181
0.1907684
0.1223715
2.686783
0.04432466
0.017155
21.71021
-4.129781
0.2095549
-13.50631
-26.48095
-1.98604
0.005836471
-19.33036
0.09417563
-11.65551
0.4025773
-30.28036
-0.0007382996
0.07974868
0.03530526
-1.326911
0.02646883
-9.362717
-49.42976
21.99245
-0.04371252
3.413421
-3.128965
0.07944843
0.05332469
-27.77838
0.02583183
2.300992
0.06273161
-9.803658
0.07562397
0.29296
-1.086858
-68.80327
0.06349635
-15.9758
22.69505
0.2097547
0.03396326
0.1343098
0.1193803
8.132313
5.394603
-51.75188
0.2409296
-0.7222419
-1.093521
0.1100814
-79.06471
-0.00651088
-19.32606
0.000437532
-0.08026941
-5.910486
8.213952
-0.7588028
0.7597136
1.951883
6.971304
-21.14033
0.003430149
0.01484666
-0.01276529
21.00328
-0.2192625
0.9738956
-0.03124492
-1.130989
0.02067492
0.0106031
-11.49342
-1.138141
-30.63515
0.5546103
0.3047839
-0.0150906
0.1664838
0.09548693
-0.5697873
0.2389132
-32.22781
0.006035719
5.582801
-0.5010076
0.01352496
-35.13595
-0.03566513
-58.6006
0.4821248
0.002448686
0.1299253
-1.814145
-41.7811
-0.02110727
-1.245893
0.3384229
-20.01263
-29.70408
0.0704379
1.493334
-70.53803
-0.02013022
0.05360252
0.05732078
-21.96966
0.1624621
-27.17033
3.867193
-2.062089
0.6736229
13.99423
-21.04966
1.168464
-30.89045
-0.00143457
0.2322742
-28.00315
0.2441707
-37.93548
-9.169631
5.77447
1.222584
0.09516791
-40.83434
0.06203992
15.17944
-0.3461667
-0.0252832
-0.1975098
3.545672
-42.34487
0.1815347
-0.0223658
1.950804
-0.06941767
-0.8087473
-0.5407466
-8.129183
-4.018743
0.009272377
-0.1591511
0.03051157
-0.1473041
-3.937315
-30.63177
-1.369726
0.2090193
0.7210425
-65.2402
0.5697717
-6.979742
-7.543809
0.1024437
-9.567602
0.01811386
0.1665054
0.1565007
1.141625
1.006302
0.08993628
-6.953437
-12.92566
-0.9862876
5.406051
-0.007561077
0.5314654
0.5252536
1.969814
0.2342679
-4.99604
-4.188182
0.1051499
7.521751
0.07524618
18.00718
-8.922146
-37.43146
2.139737
0.006554264
-54.12551
-0.2371246
25.66886
0.2224633
1.670961
-0.2784388
-0.6737735
-0.1469554
0.0004925486
-15.14438
-0.1542505
15.5507
0.01384064
-41.39829
0.02151245
0.0875421
-28.95825
0.3974843
-1.150401
-1.012161
2.1594
-25.25184
0.6407957
0.07002836
-20.80856
-7.831622
-4.700187
0.02074046
0.4113885
0.1329457
-0.9996687
1.204644
-0.1817102
-0.01117713
-9.440796
-24.45736
0.05221464
0.07544085
12.23332
-2.089952
0.197222
2.405525
0.5112197
-28.09352
-44.22533
-0.4967343
0.1002055
0.2829698
0.1216158
0.1424837
0.4262844
0.1605783
36.09026
-0.935425
0.8225593
0.02490624
0.03006471
4.807604e-05
0.0133173
0.07999123
-36.33398
0.008503487
-29.693
0.003846223
0.8160697
-0.4701425
-38.20493
0.04698694
0.04970004
-23.28117
-0.7715412
-0.0001059521
0.009657321
-0.002242184
0.3562552
0.2551896
-2.355427
-1.209711
0.007507606
0.2841601
-0.8528945
-12.06128
34.25227
-47.10347
-31.77709
-63.83289
-1.080597
0.0227355
-1.368367
0.02362378
-0.006298163
0.04201735
-0.01386429
0.004569683
-0.03874181
3.725337
18.25804
0.009762357
-8.178065
-42.86986
0.07114155
0.6985387
0.06021418
0.01948252
-3.246395
0.1163037
-44.13116
0.7313108
0.4101957
-1.866924
-13.44346
3.981057
9.921038
-0.9483437
-11.29483
0.006140135
0.06530287
0.04394926
12.71917
0.07402878
-0.3095764
-34.41011
-49.0831
0.01562911
0.02347729
0.504349
0.1731839
0.2971613
0.06186944
1.273484
-0.9628741
0.9062326
0.4687657
0.2720624
-0.2765673
0.05213584
-3.44068
11.94088
-34.46878
-0.06545637
0.9341902
0.4900638
0.1742041
0.5559688
1.092067
-0.331012
0.3760936
0.3111657
0.002801974
-12.2558
-0.002299998
0.1245816
0.2118177
38.02918
1.218025
0.02254601
0.2096085
-0.3802032
1.839434
-58.09172
0.002792735
-1.825456
0.479864
1.1962
0.2880532
-0.08533793
1.015164
-1.308622
-26.86192
0.07884359
0.02488436
0.2739862
-35.67285
-48.42841
0.6760271
0.8804219
0.0908667
-0.00631157
0.006526746
-0.5898731
0.8516054
-1.538827
1.784306
1.406354
0.03664785
-1.098603
-1.686854
-0.02970313
3.079355
-0.006889631
-1.007329
-24.95943
0.05301649
-0.2677271
-26.65806
0.2226467
-26.8796
0.1973096
0.1453539
0.1233541
0.548193
0.8256692
-0.01335746
-6.612001
-0.05366413
-1.076248
0.04315591
0.009026227
1.733335
-0.1650522
-4.774886
0.1866465
-0.00512439
0.02071506
0.1220033
-0.9893171
-0.9501986
-44.2735
1.158053
-9.12994
-0.02093737
0.02120917
0.01420036
3.917057
0.1734066
-18.89153
-0.1939396
-35.8219
-1.560486
0.009888447
0.9032948
0.00894478
26.55925
-0.2160178
2.577027
-2.40876
-11.68291
-3.167473
0.02887404
7.166536
0.07308526
-7.332509
0.4026462
-34.66762
0.009538584
-0.3533592
4.196828
0.4187683
0.2936333
-0.1430553
0.3320419
0.01761192
0.02463052
16.0466
0.01303639
0.3442743
0.06569879
-22.83928
-3.36895
0.01312795
-19.62523
-0.273143
0.1606684
3.231328
0.06603737
2.900353
-0.2340177
-0.1192279
0.02801374
-5.602941
1.571163
0.1528763
-0.8367906
0.6533343
0.3668764
0.1664447
-24.36778
2.376018
14.40947
-2.347168
0.6612713
0.2867031
0.8733029
0.0183582
0.005647285
0.0761089
-0.1970428
-0.1161299
-12.91844
0.03221708
0.1292598
-2.569307
-0.0003039202
1.734463
0.0479556
0.06004466
-24.74962
-2.823286
-25.26331
0.02580191
3.366975
3.88258
2.64806
0.03061704
0.3174478
0.0765264
4.033315
0.2237586
-0.03262618
0.8669909
-47.27476
1.632319
3.158538
0.02823211
-0.001599371
7.735586
0.2529282
6.934875
0.2120189
-5.151961
6.486284
0.007233037
-0.7661015
0.919323
15.55199
-4.772398
0.02688617
0.4839258
0.2359158
0.3263155
0.03555369
0.2110657
-0.2282567
6.959053
30.6828
0.1063199
0.09974529
3.865289
1.859583
-57.93614
0.09813773
1.897894
0.1455887
1.746736
0.0111059
0.07210564
1.543425
0.0590395
5.181101
0.01189087
2.485489
-21.12267
0.8792471
0.09684703
-72.12068
-4.345615
-2.749132
-23.5088
0.479991
0.003830473
0.1777226
0.03494928
-0.2595431
-51.06153
0.2327482
0.2280116
0.1450458
2.71981
0.0228444
-0.01771482
0.837482
-21.57685
-10.79212
-0.1092477
-21.51882
0.2863728
4.248428
-0.004208729
-25.63435
0.2029787
8.166372
-21.00979
-1.08708
-1.399321
4.716849
3.004106
2.918216
0.05659677
-0.357368
0.05820163
0.1705565
17.63019
1.894329
-0.3743504
-0.01250383
-3.687583
2.703953
9.893663
-13.69825
1.593614
-19.90751
-7.969681
-21.05413
-0.8562097
-1.159361
0.2763323
0.1252561
0.02142888
0.1590847
1.374448
0.03679174
0.4133955
0.08382591
2.05282
0.1482853
25.31006
3.305264
-28.81415
0.06790184
-5.656084
6.559255
-3.561635
-25.08777
0.1024768
0.01771322
-21.41298
-1.449236
-0.8475222
-0.1965743
0.4890717
0.06820701
0.1081452
0.6566936
0.9563677
0.8154145
-5.193106
0.1438644
0.1247486
-74.41651
0.2021036
0.08688298
3.423013
-71.03393
0.03512442
-0.4418217
6.807446
13.99516
10.58722
1.243504
0.438229
0.2401286
0.05074431
-0.03184687
-3.062855
1.885262
0.3232111
-19.93898
0.02893549
-40.44899
0.0607877
0.06683048
0.1814726
-13.6139
1.189509
-0.6906004
-1.490474
0.2719954
-9.589196
0.02849867
-6.367363
3.570329
-2.70386
0.6312423
0.06102454
-21.83544
0.5774764
0.4408857
-0.004728191
0.8230103
0.0478207
-4.258899
-0.8025489
-0.06217467
-27.42885
0.01193321
0.09866952
0.5953798
0.05674588
-0.6818018
0.09402804
0.02887328
-1.216163
-0.1263573
-24.80792
0.2110729
0.1151524
-0.5120436
-0.5561218
-0.001778754
-0.08018808
0.02285315
1.14188
0.2135531
2.921221
-27.73104
-0.6681809
0.003183717
0.1039151
0.1448304
-0.2968903
3.119087
0.009610124
-48.61965
1.591916
-2.370855
7.7252
0.03561563
-20.2986
-13.69525
0.4958971
0.01840995
-22.84555
1.240963
-11.55561
-17.09078
-5.416689
-4.857813
-2.579419
0.8908283
13.07763
1.078836
0.6486969
-83.12651
0.3403529
-0.3632654
0.01056787
-9.02025
22.60003
-15.63912
0.2089191
1.226927
-0.629525
-0.03034408
0.02580569
-8.219189
0.340239
0.7651962
-1.560102
0.2068667
-1.29691
5.176376
-0.1951369
0.2027841
0.04608649
0.6075066
-0.6007754
-1.595814
-8.825148
30.73047
0.04248073
0.04936277
-0.336832
-0.04470976
0.04530739
-0.02632683
-46.37149
-0.4088207
-67.01005
-11.29494
-1.576842
0.06444966
0.0696257
-4.563568
0.03843356
0.1969856
0.1376653
0.2116066
-5.793554
-47.99131
0.1785568
-1.801517
-1.667099
-0.03740661
-1.836151
1.140894
2.224783
-4.863982
14.86436
-0.4254283
-0.1818978
-1.066352
-0.928135
1.353566
-1.771909
0.002880139
-1.299787
1.303996
-0.007775201
8.164594
-19.21364
0.09273822
0.01832232
-18.7906
-2.459934
-0.1631298
0.2708342
-3.630991
-1.681752
0.1243353
2.035844
0.6442118
1.236567
2.80041
-1.722281
0.08658383
30.54454
-0.130675
-4.124646
0.06178843
-57.94755
0.09726565
0.1388233
0.6190455
-0.6534975
32.69801
-1.374614
0.01967076
0.7958891
-0.07903104
0.07546408
-0.3839451
0.081789
0.1162193
-22.74784
-14.98382
0.0965263
-3.432371
-29.1825
0.0156332
0.00792343
0.1684289
-14.19324
4.461663
29.68106
0.02862377
-0.4417535
-1.208321
0.02355607
0.01797907
9.933701
-2.412299
0.04584715
0.03347572
-1.394154
-0.4899896
0.08370438
0.07613773
-8.279103
0.8860327
-25.69062
2.159431
6.713204
0.07023695
0.6143225
0.03961829
4.444541
-7.204186
0.008112029
0.1356935
9.643694
-30.09401
4.947777
0.1662529
-0.1524763
-14.00429
27.68018
0.6775582
0.0002765239
-6.257743
-5.611126
-0.001001403
0.02401642
2.375728
0.206958
-0.4308735
-26.79197
-4.707927
1.296375
0.2559889
0.1533316
0.01740333
-26.55063
-21.61556
-43.44358
1.98159
-39.40202
0.5984376
-1.815428
-18.04769
-0.1493065
-1.978514
-27.74739
0.004441608
0.08593984
0.3758531
1.523943
0.03675313
-20.49312
-37.03687
1.72199
16.39565
0.06669652
-0.003116586
-22.66505
17.04649
-25.80167
0.02993518
-0.5746807
0.9038411
0.06637116
0.06749108
0.5377571
0.3621841
-0.04062973
-1.536253
-50.38341
-54.12195
0.2153019
0.4235567
1.762627
0.03190066
-0.5949558
2.073937
0.09319103
0.04548708
-0.345578
-0.3228169
0.05213491
4.327565
0.1130587
-23.39825
0.2871716
-0.3116071
-29.50584
0.7736767
-0.2033896
-3.119249
-26.98068
0.4202791
-3.783553
1.174904
-11.04016
-33.99012
34.59852
47.76185
1.292648
-1.62332
0.8786293
5.404852
0.7561662
0.006451956
11.03782
-31.19159
0.9789983
-0.01057119
-1.511345
1.470925
-0.07338007
3.203703
-1.206658
-20.70168
-56.89441
0.5677199
0.8019952
0.1205705
1.348104
0.9891226
-30.06702
0.1283315
0.1177002
-0.2301663
-1.207891
0.1418956
0.1316332
-32.94497
-23.49752
0.7959432
0.4710626
0.04024095
1.130307
0.07511803
0.9506948
0.01510164
-60.49778
-0.05502286
-8.054287
-3.194699
-0.6168861
-1.251971
-64.96636
-95.22737
-0.5939561
0.682246
0.4744303
0.02398193
-1.194241
-10.78825
0.06629164
-0.05037944
-0.03010121
0.3469148
0.1726237
-2.530597
-0.4400872
0.03267127
-0.7094721
0.03674036
0.02524208
-1.052363
-1.803457
0.02132359
-0.4885419
1.687578
-1.210855
0.0946538
2.954146
0.04044914
0.4166361
2.954987
0.01161287
0.1277811
-26.53581
-20.32026
0.01131269
-0.06699115
0.01273152
-0.01868122
-27.87865
-11.56518
-38.57908
-30.58201
23.39573
0.0630795
2.501418
0.3256968
-22.11538
0.0229633
2.800918
-85.48145
0.2114115
0.2034497
1.655863
1.304251
5.293865
-0.8438846
0.1475063
-34.12057
0.08298697
-29.52852
0.2874261
-10.55577
35.12265
-13.21559
-7.504422
0.1070553
1.157651
0.4505495
7.699361
0.5458655
7.252151
-1.882732
0.1844698
-7.664913
0.1658342
-3.473949
0.0470375
-16.5968
-0.3622802
-94.58052
7.764441
0.5424536
16.95792
0.006337247
29.51655
0.09094578
0.6757708
0.004443672
-2.540409
14.64326
0.6007911
-7.208947
-0.005369347
0.09969584
-0.3639418
-0.2713634
1.193334
-10.38359
3.291682
0.0412309
-29.85695
0.3741657
17.15667
-31.72338
1.436924
-75.21088
-15.5224
-4.101255
-22.39996
38.00078
0.2811785
0.01475357
-36.77727
0.1441439
0.05867341
-2.710415
-0.8704343
-16.37708
-68.57749
1.020138
0.1606531
1.37419
0.422316
0.0823786
0.04292073
0.5372916
7.646644
2.513689
-0.009450958
0.122577
0.128414
0.161401
0.7977301
0.0486267
-0.7612015
-0.5054804
-39.14092
-0.0005096493
-1.801418
0.09523006
-0.8033815
-27.92873
1.060997
0.05521166
0.6415449
0.1107739
0.02484614
0.2828575
0.03463089
0.3547194
-63.40279
24.33896
-2.877664
0.1737338
2.589485
-2.642226
-0.2927361
-0.6118027
0.04747605
-1.104463
0.0375657
-22.13234
-0.05468067
-17.74567
0.7068606
3.267101
0.7435908
0.3846864
-2.257584
-1.055444
1.678973
2.589013
-18.00112
2.230015
0.05358639
0.04845841
-2.476609
0.01626487
-0.7063023
-19.81895
0.3219873
-0.2468629
-0.01274318
-7.67255
0.03834475
0.1131489
2.03225
-48.23053
-0.002474327
0.03557577
0.004174103
-58.21532
0.05958757
-33.12979
-0.0301487
0.004120874
-0.7461898
-0.9509724
1.85378
-32.3784
-31.40369
0.04066814
0.08032389
-17.27989
0.04434512
2.045172
1.662991
1.583703
-1.204315
-0.006299362
-0.03877654
-40.66696
0.2545555
0.2006865
-0.8224498
0.1257191
-2.498394
-0.2124555
0.04166485
-0.2903985
-11.57742
-1.376636
-4.098058
8.9062
0.3499454
-12.71619
-0.1315606
0.09135578
-2.653052
-22.20313
-0.9597271
-1.662268
0.06288169
-19.90358
-39.75336
-26.62221
-0.04015637
-9.673041
0.3381517
-15.63297
-4.366617
-0.7165222
16.34028
0.6284785
-29.94167
-72.71143
0.1177321
0.1539921
-2.368654
0.1551628
0.1481274
0.1302721
0.3362606
0.05100799
0.1208347
-19.21821
-2.36853
0.04443022
0.5265618
1.141282
-1.818923
-0.3674268
0.07517975
0.03493269
0.09721174
-31.57149
-1.161821
1.504595
-0.5832181
0.009132046
-39.93902
0.08890771
-5.332127
0.1270495
0.1287459
0.04137374
-36.17743
-4.024937
1.089563
-1.27612
0.0004358087
11.48789
-52.16272
-16.30006
-1.945832
-0.9843773
19.31403
-2.568282
0.1232957
0.0752899
-2.710011
0.01793226
-39.80487
-29.33643
-19.23812
11.0461
8.252779
0.005613925
-41.2862
-44.40125
-66.08304
1.579576
-6.888871
-2.034047
-0.5467601
0.04857237
0.005301155
0.09494067
0.01747688
0.1172844
0.4130286
0.1805476
0.08765231
-26.33507
0.1284151
-0.1066517
-0.9636392
13.12919
19.77584
0.01452906
-22.00289
-34.88119
-14.91993
6.55795
-4.693967
-7.873146
-13.57707
-57.96333
0.0070572
-30.24641
0.4303519
-44.04222
-17.21957
0.0647293
0.2537849
-33.58853
0.2371133
14.32677
-0.006535995
0.03395499
1.67836
-0.0147389
0.03837902
0.08734638
-0.5088045
-0.5531643
0.3223153
-30.8096
0.01952748
-0.2828511
0.2598052
0.2382516
0.2205337
-30.37313
0.1660261
-36.02608
-1.117185
0.6923377
21.72865
0.007808872
0.3428089
-23.36331
-2.020216
-66.72096
0.3162935
0.03084815
-0.03981343
-0.07467409
0.5474229
0.02645265
0.5985129
-1.154521
0.02048373
-0.009572479
-0.007727542
22.80787
1.698469
-13.0343
3.71887
0.6976773
-0.04709177
-76.63287
-0.02940069
0.1060988
2.420792
1.351647
0.2132419
-52.12571
-50.47165
-54.34799
-0.000725006
0.1486272
-32.75936
0.4353209
-26.51769
-0.8807394
0.4568132
2.033957
-34.53867
0.3794968
-54.98151
-0.3578874
-0.8424478
0.03048765
0.6337268
9.465666
-0.4474611
-1.037102
0.2509534
0.02229728
-1.894825
15.41302
-1.430891
8.527278
-0.2111171
0.2297522
0.02580526
0.7925144
0.8726996
-1.359188
0.08915147
-9.180018
0.3396414
0.004416267
-30.42389
0.1377011
0.01921748
-8.912576
-5.679242
0.0116614
0.02564723
0.9527562
0.00124088
0.5784463
-68.73836
26.76748
-6.777266
0.09265509
0.1462858
-29.41913
-0.01420667
0.3624949
0.3225729
0.6220453
-1.562729
-0.136225
-0.9329556
-51.57359
-1.560961
21.12497
35.55671
0.8805533
1.247963
1.434826
0.6799345
0.3026608
0.00479589
33.44148
-45.18188
0.02064368
3.026939
0.3102811
0.6301778
0.09727949
0.06132707
1.091256
0.03266771
0.5732731
-29.05369
-0.2204482
0.7438347
0.1937714
-30.30383
-12.90834
-3.838548
0.03057888
-73.78881
27.22013
-19.17412
-0.7077696
-8.979179
-4.346003
0.01854823
1.254054
32.20155
0.4842282
0.03208603
0.6457579
-0.9356777
0.01143609
-63.35272
0.1693345
0.00502395
0.1406641
0.1073632
19.57117
0.1720657
0.5329235
0.2668395
0.02041687
0.3058992
19.57636
2.325835
6.506288
-44.13586
-26.91158
0.1027388
0.03033476
-18.42088
0.1438272
-32.41229
1.479452
0.1132681
0.5041114
-0.577239
0.7151126
-14.83377
1.067464
0.3973607
-3.035243
0.01776595
0.07546839
-2.632941
-51.85175
-18.72964
-1.123924
2.65203
0.01496759
-0.001109363
1.000861
0.2305627
-0.4204585
-0.6831999
-63.41456
0.8739611
-3.238756
-3.065448
11.51688
0.8110512
1.056279
-10.24824
2.938666
2.609071
-0.07499047
35.77552
0.008411346
-0.1380456
-0.5029471
-0.2288558
9.318636
-21.16572
-32.76671
13.92877
0.5541694
0.174844
-0.2552144
-0.1526068
0.02532975
-0.01872469
0.1061372
0.2007067
-0.419615
-0.3619793
0.032957
-0.2384263
12.01146
7.921341
0.1269343
0.04616177
-2.410969
-2.167971
0.03562488
1.631937
10.68724
-46.27126
-9.864234
0.03809463
0.2106193
-69.90511
42.83166
-83.6892
0.799226
0.6694096
3.888392
0.3418037
8.929502
-23.02773
0.0245728
3.305969
-1.054511
2.21679
-0.1181944
0.0614024
-0.9688454
-75.187
1.107756
0.2399202
-2.325133
0.06314565
-48.51748
-26.67926
-37.22663
0.004519901
15.13146
0.1842553
0.2778508
0.3181027
-0.233834
-56.01366
0.070537
2.625469
32.04683
0.1840844
0.03696333
0.04375779
26.9508
5.726023
1.434448
2.292871
0.1504197
0.0747404
-0.03995644
-64.40438
0.07888373
-84.65726
-0.2165688
-2.170961
45.32831
-0.8285377
-0.03730178
0.0757387
2.546034