/*--------------------------------*- C++ -*----------------------------------*\
| =========                 |                                                 |
| \\      /  F ield         | OpenFOAM: The Open Source CFD Toolbox           |
|  \\    /   O peration     | Version:  2406                                  |
|   \\  /    A nd           | Website:  www.openfoam.com                      |
|    \\/     M anipulation  |                                                 |
\*---------------------------------------------------------------------------*/
FoamFile
{
    version     2.0;
    format      ascii;
    arch        "LSB;label=32;scalar=64";
    class       surfaceScalarField;
    location    "0.56";
    object      phi;
}
// * * * * * * * * * * * * * * * * * * * * * * * * * * * * * * * * * * * * * //

dimensions      [0 3 -1 0 0 0 0];

oriented        oriented;

internalField   nonuniform List<scalar> 
23794
(
-0.002506943
0.003549642
-0.001042698
-0.001378865
-0.001128078
-0.0002627081
-0.001116157
0.0009800312
-0.001242739
0.001931896
-0.0009518653
0.00272116
-0.0007892636
0.003310271
-0.0005891107
0.003311363
-1.091931e-06
0.002366188
0.000945175
0.0008494119
0.001516776
-0.0003443833
0.001193795
-0.0005756589
0.0002312756
-1.580801e-05
-0.000559851
0.0006681731
-0.0006839811
0.0009902796
-0.0003221066
0.0007166322
0.0002736474
0.0004076018
0.0003090303
0.0003741883
3.341354e-05
2.747511e-05
0.0003467132
-0.0006660672
0.0006935423
-0.001693642
0.001027575
-0.0027119
0.001018259
-0.002551482
-0.000160418
-0.0006980687
-0.001853414
0.001296481
-0.00199455
0.003004855
-0.001708374
0.005094016
-0.002089161
0.008191224
-0.003097208
0.01058633
-0.002395108
0.009184405
0.001401926
0.001086723
0.008097683
-0.005432323
0.006519045
-0.003259415
-0.002172907
0.0007892279
-0.004048643
0.003913876
-0.003124648
0.006649857
-0.002735981
0.00656717
8.268676e-05
0.003443548
0.003123622
0.0008496061
0.002593942
-0.002571089
0.003420695
-0.007259016
0.004687927
-0.01049322
0.003234202
-0.01214933
0.001656109
-0.01301781
0.0008684802
-0.0135436
0.0005257932
-0.01380274
0.0002591443
-0.01392587
0.000123124
-0.01396368
3.781483e-05
-0.01392798
-3.570207e-05
-0.01386547
-6.250928e-05
-0.01374341
-0.0001220641
-0.01357809
-0.0001653202
-0.0133544
-0.0002236913
-0.0131047
-0.0002496975
-0.01283531
-0.0002693857
-0.01251248
-0.0003228378
-0.01216875
-0.0003437288
-0.01181438
-0.0003543708
-0.01139719
-0.0004171896
-0.01095629
-0.0004408955
-0.01048976
-0.0004665276
-0.01001442
-0.0004753467
-0.009516855
-0.0004975614
-0.008970647
-0.0005462083
-0.008429813
-0.0005408343
-0.007847485
-0.0005823273
-0.007246779
-0.0006007067
-0.006638077
-0.0006087017
-0.006018815
-0.0006192624
-0.005368978
-0.0006498366
-0.004715205
-0.0006537732
-0.004051483
-0.0006637216
-0.003372191
-0.0006792923
-0.002687927
-0.0006842641
-0.00202223
-0.0006656968
-0.001311104
-0.0007111257
-0.0006271718
-0.0006839325
1.87914e-05
-0.0006459632
0.0006475606
-0.0006287692
0.00139318
-0.0007456193
0.002129895
-0.0007367148
0.00285269
-0.0007227955
0.003561043
-0.0007083526
0.004251381
-0.0006903384
0.00493926
-0.0006878788
0.005604234
-0.0006649743
0.006279459
-0.0006752247
0.006933514
-0.0006540551
0.007551061
-0.0006175464
0.008172049
-0.0006209883
0.008779871
-0.0006078225
0.009363333
-0.0005834615
0.009943341
-0.0005800079
0.01050889
-0.000565546
0.01101889
-0.0005100077
0.0115248
-0.0005059023
0.01201481
-0.0004900142
0.01246321
-0.0004484027
0.01291114
-0.0004479245
0.01330577
-0.0003946334
0.01367256
-0.0003667868
0.01399958
-0.0003270171
0.01428239
-0.0002828171
0.01455975
-0.0002773542
0.01479855
-0.0002388076
0.0149964
-0.0001978409
0.01514966
-0.0001532633
0.01525793
-0.0001082675
0.015334
-7.607016e-05
0.01533907
-5.070964e-06
0.01529499
4.40783e-05
0.01513778
0.0001572082
0.01478103
0.000356753
0.01421163
0.0005693971
0.01332812
0.0008835113
0.01176223
0.001565889
0.008702769
0.003059461
0.003883484
0.004819285
0.0004087138
0.003474771
-0.001761663
0.002170377
-0.006193777
0.004432115
-0.009410286
0.003216509
-0.007746434
-0.001663852
-0.004256745
-0.003489689
-0.001421493
-0.002835252
0.002312403
-0.003733895
0.006146362
-0.003833959
0.001515396
0.004630966
-0.008032147
0.009547543
-0.01171895
0.003686807
-0.00965013
-0.002068824
-0.006534124
-0.003116006
-0.004092104
-0.002442021
-0.002477371
-0.001614732
-0.0005652511
-0.00191212
0.001692955
-0.002258206
0.003070415
-0.001377461
0.002906823
0.0001635927
0.001877024
0.001029799
0.00105424
0.0008227837
0.001760464
-0.0007062239
0.002534244
-0.0007737803
0.002819095
-0.0002848505
0.001670572
0.001148523
-7.710588e-05
0.001747678
-0.0005459612
0.0004688553
0.0005301649
-0.001076126
0.0009661129
-0.0004359481
0.0003826289
0.0005834841
0.000500301
-0.0001176722
-0.0001627645
0.0006630655
-0.002559175
0.002396411
-0.004739433
0.002180257
-0.005373872
0.0006344397
-0.005066697
-0.0003071748
-0.004388592
-0.0006781054
-0.0008389504
-0.003170929
0.00450046
-0.00237223
-0.00174345
-0.002555556
-0.000312532
-0.002547076
0.001250402
-0.002805673
0.002466378
-0.002167842
0.003498486
-0.001821372
0.004287476
-0.0013781
0.004729396
-0.0004430118
0.004459528
0.001215042
0.002950077
0.003026227
0.0008353448
0.003308527
-4.331726e-05
0.001109938
0.0003738019
-0.0009769702
0.001122417
-0.001432597
0.001440312
-0.0006400012
0.0009191686
0.0007947908
0.0004470281
0.0007811708
0.0004932882
-1.284659e-05
0.0001222132
0.0007177882
-0.001150531
0.001966286
-0.003427056
0.0033041
-0.004788399
0.002379601
-0.003510984
-0.001437833
-0.0007713104
-0.004593087
0.001387176
-0.004153036
0.003188879
-0.003510077
0.005488871
-0.004389153
0.008988765
-0.006597103
0.01165808
-0.005064425
0.01200339
0.001056618
0.004798136
0.01530294
-0.004681271
0.01599845
-0.005122455
-0.001731723
-0.002313424
-0.006857675
-0.0006625871
-0.004775485
0.0009135197
-0.004312088
0.003463832
-0.002467626
0.002142208
0.004445246
-0.005824981
0.01056113
-0.01404894
0.01164466
-0.01843262
0.009071604
-0.01990465
0.004706229
-0.02021422
0.001965681
-0.02027535
0.0009296106
-0.0202506
0.0005010419
-0.02010307
0.0001116125
-0.01993108
-4.886435e-05
-0.01975172
-0.0001415412
-0.01953392
-0.0002534984
-0.01929762
-0.0002988167
-0.01899928
-0.0004204043
-0.01865898
-0.000505619
-0.01825612
-0.0006265523
-0.01782624
-0.0006795759
-0.01738225
-0.0007133731
-0.01688071
-0.0008243745
-0.01635412
-0.0008703279
-0.01582058
-0.000887911
-0.01521507
-0.001022695
-0.01458692
-0.00106905
-0.01392921
-0.001124237
-0.01326095
-0.001143602
-0.0125726
-0.001185916
-0.01182652
-0.001292286
-0.0110881
-0.001279249
-0.01030645
-0.001363976
-0.009501409
-0.001405752
-0.008690259
-0.001419852
-0.007870857
-0.001438664
-0.007014195
-0.001506499
-0.006152106
-0.001515863
-0.005280691
-0.001535137
-0.004392104
-0.001567878
-0.003500273
-0.001576096
-0.00262732
-0.00153865
-0.001707935
-0.00163051
-0.0008185613
-0.001573306
2.87574e-05
-0.001493282
0.0008559536
-0.001455965
0.001815382
-0.001705048
0.002770358
-0.001691691
0.003710524
-0.001662962
0.004632385
-0.001630213
0.005535765
-0.001593718
0.006438071
-0.001590185
0.007314069
-0.001540972
0.008202236
-0.001563391
0.009066816
-0.001518635
0.009886994
-0.001437724
0.01071365
-0.001447647
0.01152946
-0.00142363
0.01231532
-0.001369318
0.01309719
-0.00136188
0.01386723
-0.001335584
0.01457193
-0.001214708
0.01527627
-0.001210245
0.01596301
-0.001176754
0.01660338
-0.001088769
0.01724553
-0.001090074
0.01782521
-0.0009743202
0.01838128
-0.0009228553
0.01889306
-0.0008387999
0.0193564
-0.0007461575
0.01982096
-0.0007419128
0.02024481
-0.0006626534
0.02062419
-0.0005772202
0.02095843
-0.0004875084
0.02124711
-0.000396944
0.02150385
-0.0003328095
0.02169742
-0.0001986469
0.02189811
-0.000156611
0.02207402
-1.870057e-05
0.02215315
0.0002776254
0.02216482
0.0005577249
0.02209459
0.0009537396
0.02182236
0.001838122
0.02058156
0.004300263
0.01679605
0.008604798
0.008905484
0.01136533
-0.0007968752
0.01187274
-0.006089344
0.009724583
-0.005506347
0.002633512
-0.0021089
-0.005061299
0.0006612355
-0.006259824
0.002398363
-0.00457238
0.005023072
-0.006358605
0.007509433
-0.00632032
-0.00083606
0.01297646
-0.01187821
0.02058969
-0.01353163
0.005340226
-0.01066789
-0.004932558
-0.007073044
-0.006710853
-0.004325845
-0.00518922
-0.002514898
-0.003425679
-0.0003673549
-0.004059664
0.00239883
-0.005024391
0.004880333
-0.003858963
0.005194683
-0.0001507577
0.002904679
0.003319802
0.001129031
0.002598432
0.002105219
-0.001682412
0.003071424
-0.001739985
0.003727128
-0.000940554
0.002905506
0.001970144
7.390505e-05
0.004579279
-0.0007827351
0.001325495
0.001163432
-0.003022293
0.001733123
-0.00100564
0.001025538
0.001291069
-0.0001894423
0.001097308
-0.003238722
0.003712345
-0.006469437
0.005627126
-0.007473711
0.003184532
-0.007089752
0.0002504804
-0.006497391
-0.0008995359
-0.00560561
-0.001569887
-0.0019441
-0.003836214
0.005427585
-0.003963601
-0.00212319
-0.004268581
-0.0003856142
-0.004284651
0.001491446
-0.004682733
0.002949043
-0.003625439
0.004184321
-0.00305665
0.005144604
-0.002338383
0.005627435
-0.0009258424
0.005605813
0.001236664
0.004720257
0.003911783
0.002850603
0.005178181
0.001382663
0.002577877
0.001157508
-0.0007518143
0.001595259
-0.001870348
0.001522175
-0.000566917
0.0007448069
0.001572158
0.0004058188
0.001120159
0.0006223898
-0.0002294176
0.0001463177
0.00119386
-0.001544683
0.003657287
-0.004393122
0.006152539
-0.005659266
0.003645746
-0.00379114
-0.003305959
-0.0009396091
-0.007444619
0.0009242285
-0.006016874
0.002580996
-0.005166845
0.005000908
-0.006809065
0.008995757
-0.01059195
0.01220172
-0.008270387
0.01265768
0.0006006549
0.006802018
0.0211586
-0.002878071
0.02567854
-0.00797913
0.003369336
-0.009282452
-0.005554352
-0.009546048
-0.004511889
-0.007629391
-0.006228745
-0.006083193
-0.004013824
-0.009519136
0.00788119
-0.01757268
0.01861468
-0.0230341
0.01710608
-0.02389177
0.009929274
-0.02370071
0.004515164
-0.02373901
0.002003983
-0.02383351
0.001024115
-0.02389228
0.0005598073
-0.02379754
1.687415e-05
-0.02365041
-0.0001959963
-0.02346579
-0.0003261659
-0.02321812
-0.0005011656
-0.02294766
-0.0005692706
-0.0226014
-0.0007666667
-0.02220607
-0.0009009522
-0.02173461
-0.001098012
-0.02123073
-0.001183453
-0.02071127
-0.001232836
-0.02012006
-0.001415586
-0.01949895
-0.001491433
-0.01887086
-0.001516
-0.01815405
-0.00173951
-0.01741029
-0.001812806
-0.01663083
-0.001903698
-0.01583841
-0.001936023
-0.01502189
-0.002002435
-0.01413423
-0.002179947
-0.01325703
-0.002156447
-0.01232547
-0.002295535
-0.0113661
-0.00236513
-0.01039867
-0.002387278
-0.009420857
-0.002416478
-0.008397897
-0.002529458
-0.007368026
-0.002545734
-0.006325886
-0.002577277
-0.005263364
-0.0026304
-0.004195555
-0.002643904
-0.003148325
-0.002585881
-0.002048256
-0.002730579
-0.0009823688
-0.002639194
3.662894e-05
-0.00251228
0.001035767
-0.002455104
0.00218331
-0.002852591
0.003327563
-0.002835944
0.004454163
-0.002789562
0.005557266
-0.002733316
0.006637734
-0.002674187
0.007716072
-0.002668523
0.008761701
-0.002586602
0.009821436
-0.002623126
0.0108515
-0.002548701
0.01182793
-0.002414151
0.01281186
-0.002431579
0.01378156
-0.00239333
0.01471456
-0.002302323
0.01564311
-0.002290428
0.01655673
-0.002249204
0.01739109
-0.002049065
0.01822556
-0.00204471
0.01903797
-0.001989164
0.01979342
-0.001844226
0.0205528
-0.001849447
0.02123484
-0.001656364
0.02188947
-0.00157749
0.02248929
-0.001438617
0.02303003
-0.001286896
0.0235733
-0.001285179
0.02406588
-0.00115524
0.02450597
-0.001017309
0.0248909
-0.0008724361
0.02522064
-0.000726689
0.02551334
-0.0006255095
0.02572641
-0.0004117088
0.02592643
-0.0003566353
0.02606206
-0.0001543248
0.02606246
0.0002772162
0.02598483
0.000635358
0.02587229
0.001066277
0.0257978
0.001912611
0.02592868
0.004169386
0.02551064
0.009022844
0.02049531
0.01638065
0.008825971
0.02354208
0.0006217175
0.01792884
0.002474296
0.0007809331
0.006993042
-0.009580045
0.009691426
-0.008958208
0.009943975
-0.004824929
0.009340515
-0.005755144
0.007335042
-0.004314847
-0.003231515
0.02354302
-0.0132932
0.03065138
-0.01425358
0.006300605
-0.01114309
-0.008043053
-0.006897147
-0.01095679
-0.003827103
-0.008259264
-0.001972006
-0.005280776
9.6759e-05
-0.006128429
0.003044268
-0.0079719
0.005989933
-0.006804628
0.006241819
-0.0004026433
0.003156088
0.006405532
0.001147183
0.004607337
0.002534288
-0.003069517
0.00375543
-0.002961128
0.004352782
-0.001537906
0.00357556
0.002747367
0.000218498
0.007936341
-0.0006025909
0.002146584
0.001827453
-0.005452337
0.002155492
-0.001333678
0.0008731587
0.002573402
-0.002462024
0.004432491
-0.006843054
0.008093375
-0.008887622
0.007671694
-0.008796865
0.003093775
-0.008437058
-0.0001093273
-0.007829865
-0.001506729
-0.00673803
-0.002661722
-0.003254545
-0.004726913
0.006620064
-0.005856752
-0.002676738
-0.006318756
-0.0005844423
-0.006376947
0.001678134
-0.00694531
0.003446995
-0.0053943
0.004944656
-0.004554311
0.006131246
-0.003524973
0.006714157
-0.001508753
0.006659704
0.001291117
0.00611459
0.004456897
0.004761816
0.006530956
0.003134419
0.004205273
0.00223042
0.0001521841
0.00212524
-0.001765168
0.001462301
9.60222e-05
0.0004578718
0.002576587
0.0003606704
0.00121736
0.0007709409
-0.0006396882
0.0003037106
0.001661091
-0.00161412
0.005575118
-0.004736184
0.009274603
-0.005896354
0.004805916
-0.003946965
-0.005255349
-0.00149964
-0.009891943
-0.0002001924
-0.007316321
0.001225876
-0.006592914
0.00387355
-0.009456738
0.008609001
-0.0153274
0.01245169
-0.01211308
0.01239824
0.0006541099
0.006943745
0.02661309
-0.002683175
0.03530546
-0.01281178
0.01349794
-0.01867087
0.0003047349
-0.02108727
-0.002095489
-0.0213169
-0.005999114
-0.02208479
-0.003245933
-0.02477973
0.01057613
-0.02801671
0.02185166
-0.02877539
0.01786476
-0.02819277
0.009346651
-0.02833464
0.004657034
-0.02866571
0.002335056
-0.02885556
0.001213964
-0.02893939
0.0006436378
-0.0288062
-0.0001163128
-0.02860297
-0.0003992252
-0.0283563
-0.000572836
-0.02803584
-0.0008216295
-0.02769137
-0.0009137394
-0.02725795
-0.001200081
-0.02676807
-0.001390835
-0.02618789
-0.001678194
-0.02556937
-0.001801977
-0.02493384
-0.001868366
-0.02421421
-0.002135213
-0.02345902
-0.00224662
-0.02269632
-0.0022787
-0.02183047
-0.002605364
-0.02093065
-0.002712622
-0.01998926
-0.00284509
-0.01903378
-0.002891507
-0.01805083
-0.002985386
-0.01698126
-0.003249513
-0.01592727
-0.003210437
-0.01480699
-0.003415808
-0.01365511
-0.00351701
-0.01249289
-0.003549499
-0.01131896
-0.003590408
-0.01009118
-0.003757236
-0.008855317
-0.003781602
-0.007604456
-0.003828138
-0.006331066
-0.00390379
-0.005048667
-0.003926304
-0.003790339
-0.003844209
-0.002467342
-0.004053575
-0.001183472
-0.003923064
4.918944e-05
-0.003744941
0.001261497
-0.003667412
0.002639361
-0.004230455
0.004011984
-0.004208566
0.005365902
-0.00414348
0.006689199
-0.004056613
0.007983535
-0.003968522
0.009274111
-0.0039591
0.01052479
-0.003837281
0.01179475
-0.003893085
0.01302677
-0.003780723
0.01419777
-0.003585145
0.01537939
-0.003613202
0.01654223
-0.003556174
0.01766475
-0.003424842
0.01878422
-0.003409892
0.01988287
-0.003347856
0.0208902
-0.003056396
0.02189883
-0.003053339
0.02287999
-0.00297033
0.02379531
-0.00275954
0.02471618
-0.002770315
0.02554536
-0.002485546
0.02634183
-0.002373966
0.02707421
-0.002170999
0.02773902
-0.0019517
0.02840674
-0.001952898
0.02901388
-0.001762382
0.0295612
-0.001564628
0.03004178
-0.001353017
0.03046168
-0.001146589
0.03083729
-0.001001124
0.03111932
-0.0006937353
0.03139042
-0.0006277334
0.03158268
-0.0003465876
0.03159492
0.0002649788
0.03148563
0.000744649
0.03126884
0.001283063
0.03093317
0.002248284
0.03060428
0.004498275
0.03099607
0.008631056
0.03026057
0.01711615
0.02402467
0.02977798
0.01753463
0.02441888
0.01653926
0.001776305
0.01921837
-0.01225915
0.0204397
-0.01017954
0.01917156
-0.003556787
0.01513959
-0.001723177
0.007931266
0.00289348
-0.004498502
0.03597278
-0.0139662
0.04011908
-0.01512112
0.00745552
-0.01130793
-0.01185623
-0.006309703
-0.01595502
-0.002775788
-0.01179318
-0.0008935916
-0.007162973
0.000952914
-0.007974935
0.003876959
-0.01089595
0.006926442
-0.009854111
0.006537093
-1.3294e-05
0.002899228
0.0100434
0.001183151
0.006323414
0.002981837
-0.004868203
0.00454242
-0.00452171
0.005093201
-0.002088687
0.004269674
0.003570893
0.0005070607
0.01169895
-0.0002631106
0.002916756
0.002342997
-0.008058444
0.002225115
-0.001215796
-0.0005111019
0.005309619
-0.005948844
0.009870234
-0.01003112
0.01217565
-0.01073923
0.008379805
-0.01045684
0.002811385
-0.01022911
-0.0003370618
-0.009467009
-0.002268826
-0.008179996
-0.003948735
-0.004814476
-0.005905483
0.008158985
-0.008110254
-0.00346652
-0.008757719
-0.0009909429
-0.008852524
0.001724916
-0.009661169
0.00389275
-0.007562134
0.005735592
-0.006397154
0.007222543
-0.005011924
0.008019251
-0.002305461
0.007937952
0.001372415
0.007414263
0.004980586
0.006315584
0.007629635
0.004634625
0.005886232
0.003231965
0.001554844
0.002594331
-0.001127534
0.001321192
0.001369162
0.0001524177
0.003745361
0.0002760895
0.001093688
0.0007963806
-0.001159979
0.0004860351
0.001971436
-0.001272349
0.007333502
-0.004441763
0.01244402
-0.005658571
0.006022724
-0.0041316
-0.00678232
-0.002615036
-0.01140851
-0.002190392
-0.007740965
-0.001111028
-0.007672278
0.00197917
-0.01254694
0.007237751
-0.02058598
0.01137088
-0.01624621
0.01089582
0.001129172
0.005274475
0.03223444
-0.005007266
0.0455872
-0.01863479
0.02712546
-0.02730439
0.008974337
-0.03090963
0.00150975
-0.03292299
-0.003985748
-0.03502815
-0.001140782
-0.03602833
0.01157631
-0.03509119
0.02091453
-0.03366854
0.01644211
-0.03337546
0.00905357
-0.03377827
0.00505984
-0.03413984
0.002696623
-0.03435857
0.001432696
-0.03448858
0.0007736474
-0.0343562
-0.0002486872
-0.03413943
-0.0006159957
-0.03387028
-0.0008419891
-0.03349638
-0.001195531
-0.03310975
-0.00130037
-0.032601
-0.001708832
-0.03202991
-0.001961916
-0.03134353
-0.002364582
-0.03061178
-0.002533721
-0.02986258
-0.002617567
-0.02900497
-0.002992825
-0.02810537
-0.003146221
-0.02719984
-0.003184233
-0.02616728
-0.003637919
-0.0250907
-0.003789202
-0.0239653
-0.003970491
-0.02282496
-0.004031851
-0.02165142
-0.004158927
-0.02036791
-0.004533017
-0.0191101
-0.004468247
-0.01776703
-0.004758881
-0.01638942
-0.004894617
-0.01499772
-0.004941199
-0.01359406
-0.00499407
-0.01212259
-0.005228704
-0.01064155
-0.005262646
-0.009140082
-0.005329604
-0.007615393
-0.00542848
-0.006077429
-0.005464267
-0.004569531
-0.005352107
-0.002977206
-0.0056459
-0.001427561
-0.00547271
6.678089e-05
-0.005239282
0.001537801
-0.005138432
0.003193044
-0.005885698
0.004838268
-0.00585379
0.006463697
-0.005768909
0.008044532
-0.005637447
0.009587243
-0.005511233
0.01112683
-0.005498682
0.01261896
-0.005329418
0.01414035
-0.005414477
0.01561028
-0.00525065
0.01701419
-0.00498905
0.01843379
-0.005032803
0.01982243
-0.004944817
0.02116805
-0.004770463
0.02251532
-0.004757163
0.0238278
-0.004660338
0.02503334
-0.004261931
0.02624293
-0.004262927
0.02741551
-0.004142916
0.02850612
-0.003850145
0.02960885
-0.003873043
0.03059597
-0.003472674
0.03154335
-0.003321342
0.03241249
-0.003040139
0.03319717
-0.002736378
0.03398848
-0.002744207
0.03469963
-0.002473536
0.03534404
-0.002209035
0.03590136
-0.001910338
0.0363847
-0.00162993
0.03681965
-0.00143607
0.03712689
-0.001000975
0.03742744
-0.0009282868
0.03762676
-0.0005459128
0.03761216
0.0002795829
0.03745599
0.0009008169
0.03719373
0.001545327
0.03682509
0.002616922
0.03631228
0.005011082
0.0361682
0.008775142
0.03729527
0.01598908
0.03769377
0.02937948
0.03603581
0.02607684
0.03405825
0.003753868
0.03300654
-0.01120745
0.03160341
-0.008776417
0.02868422
-0.0006375922
0.02199306
0.004967982
0.009984793
0.01490174
-0.004079713
0.05003729
-0.01321697
0.04925633
-0.01484512
0.009083675
-0.01042805
-0.01627331
-0.004957279
-0.0214258
-0.001125142
-0.01562532
0.0008215523
-0.009109666
0.002308502
-0.009461885
0.004865632
-0.01345308
0.007583675
-0.01257215
0.006053961
0.001516419
0.002129664
0.01396769
0.001090005
0.007363072
0.003292083
-0.007070281
0.005374947
-0.006604574
0.005990553
-0.002704293
0.005129909
0.004431537
0.001093472
0.01573539
6.587669e-05
0.003944351
0.002264423
-0.01025699
0.0009716822
7.694489e-05
-0.003813268
0.01009457
-0.01008733
0.0161443
-0.01282581
0.01491413
-0.01280019
0.00835419
-0.0127288
0.002739995
-0.01250007
-0.0005657975
-0.01157154
-0.003197352
-0.0100222
-0.005498079
-0.006677687
-0.007494828
0.01020991
-0.01082534
-0.004577355
-0.01167519
-0.001684924
-0.01174496
0.001563535
-0.01290963
0.004240527
-0.01023913
0.006522725
-0.008679351
0.008418189
-0.006907388
0.009532845
-0.003420117
0.009535311
0.001369949
0.008920301
0.005595596
0.007713956
0.00883598
0.005880062
0.007720126
0.004106602
0.003328304
0.002960293
1.877438e-05
0.001104752
0.003224704
-0.0001875284
0.005037641
0.0001255419
0.0007806182
0.0007734469
-0.001807884
0.0005900257
0.002154857
-0.0006767988
0.008600326
-0.003600442
0.01536766
-0.005157918
0.0075802
-0.004568458
-0.007371779
-0.004477296
-0.01149967
-0.005237577
-0.006980685
-0.004595944
-0.008313911
-0.001733466
-0.01540941
0.003557479
-0.02587693
0.007606885
-0.02029561
0.007035412
0.001700645
0.00146744
0.03780241
-0.01026441
0.05731905
-0.02520945
0.04207051
-0.03389029
0.01765517
-0.03729011
0.004909576
-0.04017028
-0.001105579
-0.04290022
0.001589154
-0.04325322
0.0119293
-0.04134533
0.01900664
-0.04017735
0.01527413
-0.04037893
0.009255153
-0.04080979
0.005490697
-0.04122012
0.003106954
-0.04143258
0.001645158
-0.04156657
0.000907636
-0.04135333
-0.0004619333
-0.04107705
-0.0008922705
-0.04073613
-0.001182909
-0.04026239
-0.001669269
-0.03979664
-0.001766126
-0.0391712
-0.002334267
-0.03848053
-0.002652584
-0.03764677
-0.003198349
-0.03675874
-0.003421753
-0.03585778
-0.003518523
-0.03481989
-0.004030716
-0.03373552
-0.004230588
-0.03265047
-0.004269287
-0.03140863
-0.00487976
-0.03010945
-0.005088382
-0.02875812
-0.005321816
-0.02738855
-0.005401422
-0.02598313
-0.00556435
-0.02443535
-0.00608079
-0.02293357
-0.005970029
-0.02131808
-0.006374372
-0.01966608
-0.006546622
-0.01799807
-0.006609207
-0.01631963
-0.006672504
-0.01455903
-0.006989303
-0.0127904
-0.007031285
-0.01098866
-0.007131345
-0.009164277
-0.007252858
-0.007313923
-0.007314621
-0.005513772
-0.007152258
-0.003601501
-0.007558171
-0.001724748
-0.007349463
9.022254e-05
-0.007054253
0.00187583
-0.00692404
0.003866065
-0.007875933
0.00584045
-0.007828175
0.007778531
-0.00770699
0.009655066
-0.007513982
0.01149013
-0.007346302
0.01332824
-0.007336786
0.01511315
-0.007114331
0.01694524
-0.007246566
0.01870175
-0.007007158
0.02039175
-0.006679045
0.02210719
-0.006748245
0.02376847
-0.006606103
0.02538343
-0.006385416
0.02701669
-0.006390426
0.02858912
-0.006232769
0.03003391
-0.005706718
0.0314912
-0.005720214
0.03290074
-0.005552456
0.03420768
-0.005157093
0.03553741
-0.005202768
0.0367258
-0.004661064
0.03786707
-0.004462611
0.03891224
-0.004085306
0.03986112
-0.003685267
0.04082379
-0.003706879
0.04168005
-0.00332979
0.04247055
-0.002999532
0.04314678
-0.002586571
0.04374344
-0.002226586
0.04428252
-0.001975156
0.04467258
-0.001391031
0.04505048
-0.001306192
0.04532346
-0.0008188851
0.04535295
0.0002500901
0.04520034
0.001053425
0.04492007
0.001825598
0.04450133
0.003035661
0.04395943
0.005552984
0.04338279
0.009351779
0.04407293
0.01529894
0.0471382
0.0263142
0.04864338
0.02457166
0.04631792
0.006079328
0.04292839
-0.007817916
0.03971026
-0.005558282
0.03599694
0.003075725
0.02864279
0.01232214
0.01387285
0.02967168
-0.001693436
0.06560358
-0.01023659
0.05779948
-0.01209651
0.0109436
-0.007357245
-0.02101257
-0.001922629
-0.02686041
0.002152532
-0.01970048
0.003560652
-0.01051779
0.004409034
-0.01031027
0.006100325
-0.01514437
0.007845124
-0.01431695
0.004871731
0.004489813
0.0009082475
0.01793118
0.0006877873
0.007583532
0.003376574
-0.009759067
0.006175
-0.009402999
0.006926247
-0.00345554
0.006085877
0.005271907
0.002049317
0.01977195
0.000457797
0.005535871
0.0008547882
-0.01065398
-0.002534363
0.003466096
-0.00901325
0.01657345
-0.01445592
0.02158697
-0.01569096
0.01614916
-0.01563703
0.008300266
-0.01584625
0.002949214
-0.01551151
-0.0009005382
-0.01440552
-0.004303346
-0.01247863
-0.007424971
-0.008946401
-0.009689221
0.01302587
-0.01416199
-0.006121759
-0.01524265
-0.00273497
-0.01513174
0.001135579
-0.01678018
0.00444662
-0.01355017
0.007271032
-0.01150376
0.009723722
-0.009360077
0.01128742
-0.004983819
0.01149806
0.001159315
0.01084948
0.00624417
0.009294012
0.01039145
0.007109882
0.009904256
0.004975916
0.00546227
0.003258722
0.001735969
0.0008397898
0.005643635
-0.0004465645
0.006323995
8.961294e-05
0.0002444406
0.001010117
-0.002728389
0.0007736722
0.002391302
-0.0001173646
0.009491363
-0.002645243
0.01789554
-0.004760841
0.009695797
-0.00556406
-0.00656856
-0.007384742
-0.009678988
-0.009751745
-0.004613682
-0.009976148
-0.008089507
-0.008028897
-0.01735666
-0.003336155
-0.03056967
-0.00065711
-0.02297466
-0.0009948885
0.002038424
-0.007804941
0.04461246
-0.01928797
0.06880208
-0.03305752
0.05584006
-0.04026307
0.02486072
-0.04345905
0.008105558
-0.04689933
0.002334696
-0.0498508
0.00454063
-0.05043743
0.01251593
-0.04907249
0.0176417
-0.04835789
0.01455952
-0.04855053
0.009447793
-0.04890662
0.005846791
-0.04938014
0.003580478
-0.04958554
0.001850556
-0.04977994
0.001102039
-0.0495484
-0.0006934784
-0.04922865
-0.001212018
-0.04883095
-0.001580613
-0.04824207
-0.002258147
-0.0477184
-0.0022898
-0.04695531
-0.003097349
-0.04614425
-0.003463651
-0.04514524
-0.00419736
-0.04407435
-0.004492636
-0.04300613
-0.004586746
-0.04176612
-0.005270729
-0.04046501
-0.005531694
-0.03916249
-0.005571806
-0.03768311
-0.006359146
-0.03612691
-0.006644581
-0.03450874
-0.006939982
-0.03284844
-0.00706172
-0.0311893
-0.007223493
-0.02931361
-0.007956478
-0.02752646
-0.007757182
-0.02557598
-0.008324851
-0.02359784
-0.008524768
-0.02160346
-0.008603578
-0.01956211
-0.008713855
-0.01747084
-0.009080572
-0.01536495
-0.009137181
-0.01320808
-0.009288209
-0.01104668
-0.009414264
-0.008787822
-0.009573476
-0.006661894
-0.009278186
-0.004366927
-0.009853138
-0.002087758
-0.009628632
0.0001211352
-0.009263146
0.002290705
-0.00909361
0.004683633
-0.01026886
0.007052337
-0.01019688
0.009325302
-0.009979955
0.0115541
-0.009742785
0.01375668
-0.009548881
0.01595492
-0.009535023
0.01809541
-0.009254819
0.02032165
-0.009472806
0.02242741
-0.009112922
0.02445309
-0.008704719
0.02651441
-0.008809565
0.02852096
-0.008612661
0.03046234
-0.008326795
0.03241306
-0.008341142
0.03430143
-0.00812114
0.03602792
-0.007433212
0.03777289
-0.007465182
0.03944208
-0.007221646
0.0410223
-0.006737313
0.04261834
-0.006798801
0.04403118
-0.006073904
0.04541068
-0.005842111
0.04664464
-0.005319271
0.04778009
-0.004820712
0.04893838
-0.004865168
0.04994272
-0.004334134
0.05089902
-0.003955833
0.05168448
-0.003372027
0.05239788
-0.002939986
0.05304739
-0.002624672
0.05348647
-0.001830109
0.05394453
-0.001764257
0.05426148
-0.001135831
0.05424993
0.0002616425
0.0540603
0.001243049
0.05373067
0.002155229
0.05328274
0.003483592
0.05276122
0.006074509
0.05232065
0.009792348
0.0525169
0.01510269
0.05528623
0.02354487
0.05722281
0.02263508
0.05475186
0.008550271
0.0505646
-0.003630656
0.04646511
-0.00145879
0.04248095
0.007059886
0.03568453
0.01911856
0.02038706
0.04496915
0.004701725
0.08128891
-0.003437367
0.06593857
-0.005021205
0.01252744
-0.0004350496
-0.02559873
0.004147957
-0.03144342
0.007554872
-0.02310739
0.008086759
-0.01104967
0.007957556
-0.01018106
0.007975468
-0.01516228
0.007784134
-0.01412562
0.003347969
0.008925978
-0.0004305954
0.02170974
-0.0003412467
0.007494183
0.003178325
-0.01327864
0.006840678
-0.01306535
0.007676703
-0.004291565
0.006864136
0.006084474
0.003034379
0.02360171
0.0001017896
0.008468461
-0.002645417
-0.007906776
-0.008818188
0.009638868
-0.01549221
0.02324748
-0.0189493
0.02504405
-0.01930574
0.0165056
-0.01972235
0.008716877
-0.02011181
0.003338672
-0.0196575
-0.001354844
-0.01833303
-0.005627815
-0.01585728
-0.009900727
-0.01177781
-0.01275457
0.01697274
-0.01838016
-0.008252007
-0.01974521
-0.004193841
-0.01918991
0.0003379225
-0.02131194
0.004439751
-0.017652
0.007959815
-0.01502383
0.01112912
-0.01252939
0.01332754
-0.007182239
0.01385632
0.0006305374
0.01345001
0.006650481
0.01146703
0.01237443
0.008714955
0.01265633
0.006020042
0.008157183
0.003323323
0.004432687
0.0003497059
0.008617253
-0.0005799527
0.007253654
0.000355098
-0.0006906101
0.001758354
-0.004131644
0.001365875
0.002783781
0.0004751326
0.01038211
-0.00187378
0.02024445
-0.004662061
0.01248408
-0.007857766
-0.003372855
-0.01222907
-0.005307684
-0.01666897
-0.0001737778
-0.01840945
-0.006349035
-0.0181677
-0.01759841
-0.01475909
-0.03397829
-0.01233539
-0.02539836
-0.0136724
0.00337544
-0.02256152
0.05350158
-0.03327688
0.07951743
-0.04343748
0.06600066
-0.04816953
0.02959277
-0.05171629
0.01165232
-0.05567843
0.006296836
-0.05879569
0.007657899
-0.0598024
0.01352264
-0.0588972
0.0167365
-0.05837583
0.01403815
-0.05854531
0.009617279
-0.05885384
0.006155315
-0.0594516
0.004178247
-0.05954478
0.001943728
-0.05978428
0.001341542
-0.05946322
-0.001014535
-0.05906217
-0.001613067
-0.05864629
-0.001996498
-0.05785906
-0.003045373
-0.0572722
-0.00287666
-0.05634169
-0.004027861
-0.05539486
-0.004410486
-0.05417683
-0.00541539
-0.05286335
-0.005806118
-0.05160471
-0.00584538
-0.05014757
-0.006727873
-0.04852499
-0.007154268
-0.04697104
-0.007125755
-0.04522213
-0.00810806
-0.04337485
-0.008491861
-0.04139754
-0.008917297
-0.03938664
-0.009072612
-0.03748911
-0.009121026
-0.03515384
-0.01029175
-0.03306061
-0.009850409
-0.03064642
-0.01073904
-0.02833232
-0.01083887
-0.02594185
-0.01099404
-0.02345544
-0.01120027
-0.02098635
-0.01154965
-0.01843731
-0.01168623
-0.01583945
-0.01188607
-0.01330986
-0.01194385
-0.01055842
-0.01232492
-0.008084338
-0.01175226
-0.005290435
-0.01264704
-0.00254072
-0.01237835
0.0001564477
-0.01196031
0.002812802
-0.01174996
0.005715485
-0.01317154
0.008442626
-0.01292402
0.01110061
-0.01263794
0.01379696
-0.01243913
0.01648571
-0.01223762
0.01913541
-0.01218472
0.02167407