/*--------------------------------*- C++ -*----------------------------------*\
| =========                 |                                                 |
| \\      /  F ield         | OpenFOAM: The Open Source CFD Toolbox           |
|  \\    /   O peration     | Version:  2406                                  |
|   \\  /    A nd           | Website:  www.openfoam.com                      |
|    \\/     M anipulation  |                                                 |
\*---------------------------------------------------------------------------*/
FoamFile
{
    version     2.0;
    format      ascii;
    arch        "LSB;label=32;scalar=64";
    class       volVectorField;
    location    "0.56";
    object      U;
}
// * * * * * * * * * * * * * * * * * * * * * * * * * * * * * * * * * * * * * //

dimensions      [0 1 -1 0 0 0 0];

internalField   nonuniform List<vector> 
15536
(
(0.06051842 -3.102794 -1.443413e-22)
(0.09522639 -1.992502 -2.765539e-19)
(0.0453218 -0.8513942 -5.041105e-19)
(-0.1029275 0.3592935 -4.934351e-19)
(-0.2963249 1.479225 -8.934392e-21)
(-0.5318025 2.357778 5.45809e-21)
(-0.7855205 3.023304 1.2728e-20)
(-1.010403 3.434941 -1.266372e-20)
(-0.9653343 3.029276 3.771069e-18)
(-0.5912531 1.7136 3.924343e-18)
(0.02752492 0.009446469 0)
(0.3499528 -0.6945511 0)
(0.1383466 -0.3043177 -3.036723e-20)
(-0.1818785 0.2520885 7.608921e-18)
(-0.5461617 0.8236963 3.622906e-18)
(-0.5452345 0.7940572 -7.145234e-18)
(-0.273825 0.3842654 3.410283e-18)
(-0.2249052 0.2818265 2.182409e-20)
(-0.1795019 0.2352238 -3.882067e-20)
(0.1412023 -0.09068146 1.691921e-20)
(0.8223301 -0.7192529 0)
(1.90581 -1.558213 1.033946e-18)
(2.492554 -1.910044 0)
(1.472706 -1.103451 1.103286e-18)
(-0.3550129 0.1552044 -1.211721e-20)
(-1.963787 1.129359 -3.176878e-20)
(-3.687503 2.000953 3.048861e-20)
(-6.045702 3.010328 -7.485099e-18)
(-8.537005 3.961022 -1.230858e-17)
(-10.1153 4.460051 0)
(-6.466155 2.976782 -4.127215e-20)
(3.131343 -0.6811598 -3.29685e-18)
(6.6028 -2.004326 1.556962e-18)
(1.127392 -0.5443441 0)
(-2.760282 0.2875666 -4.253253e-18)
(-5.255072 0.6347101 -2.586896e-20)
(-7.290842 0.9521503 3.810267e-18)
(-5.860118 0.8194606 -1.992775e-18)
(-2.383712 0.2888388 1.672722e-21)
(0.366485 -0.0003358276 -4.081727e-19)
(5.380353 0.5586863 1.533017e-18)
(9.676235 1.309464 -2.408168e-20)
(11.80043 2.000059 2.331627e-20)
(12.80037 2.662513 0)
(13.30066 3.329268 -6.065082e-18)
(13.5276 3.965832 -6.044158e-18)
(13.54572 4.560449 0)
(13.43254 5.119039 -1.156954e-17)
(13.21267 5.640533 1.128649e-17)
(12.9328 6.134776 1.088979e-17)
(12.59672 6.592216 3.958722e-20)
(12.19841 7.00702 -9.850352e-18)
(11.74683 7.374621 0)
(11.25107 7.696342 0)
(10.72034 7.968751 7.862439e-18)
(10.15331 8.184198 7.161339e-18)
(9.56781 8.352791 4.686808e-20)
(8.970138 8.472474 5.521702e-18)
(8.34827 8.525467 9.519161e-18)
(7.714772 8.519782 3.933598e-18)
(7.077793 8.458315 3.044757e-18)
(6.45011 8.349372 -2.079029e-20)
(5.82899 8.183587 0)
(5.212732 7.954727 4.68387e-19)
(4.614383 7.678363 0)
(4.030339 7.341816 1.2911e-18)
(3.469433 6.95044 -3.138002e-20)
(2.941563 6.514272 -3.025655e-21)
(2.446551 6.030995 1.311533e-20)
(1.98899 5.505095 -4.496028e-18)
(1.574496 4.944557 -2.149845e-20)
(1.204007 4.346869 2.956531e-18)
(0.8792777 3.713211 3.242497e-18)
(0.6055349 3.05753 0)
(0.3826011 2.385235 0)
(0.2146139 1.691581 3.912439e-18)
(0.09795814 0.9869747 -1.416063e-22)
(0.03618687 0.3056695 1.059629e-18)
(0.02249877 -0.3388974 1.935581e-21)
(0.06237122 -1.04044 -7.917378e-21)
(0.153417 -1.791452 -1.952376e-18)
(0.3025203 -2.534944 0)
(0.5080259 -3.253381 3.462943e-18)
(0.7666453 -3.943454 0)
(1.076677 -4.603883 -2.864339e-18)
(1.43593 -5.233054 2.49571e-18)
(1.843319 -5.829124 1.824894e-20)
(2.295423 -6.390812 3.548547e-18)
(2.789051 -6.909071 8.988839e-21)
(3.319723 -7.381748 -1.902926e-18)
(3.884798 -7.810909 -1.006339e-18)
(4.481599 -8.19039 4.005247e-21)
(5.106012 -8.523983 8.694577e-19)
(5.750854 -8.806404 -1.822584e-18)
(6.411647 -9.033081 2.531063e-20)
(7.077373 -9.190966 7.492295e-21)
(7.752954 -9.295101 -4.635981e-18)
(8.433999 -9.345757 0)
(9.11146 -9.334687 1.280719e-17)
(9.787681 -9.272881 7.211893e-18)
(10.4429 -9.146218 1.261429e-19)
(11.07372 -8.957608 -9.024932e-18)
(11.6756 -8.710709 0)
(12.24736 -8.409264 0)
(12.78807 -8.061525 0)
(13.28877 -7.665538 0)
(13.739 -7.222452 1.240855e-17)
(14.13513 -6.736245 1.303165e-17)
(14.47675 -6.211619 3.292871e-20)
(14.75962 -5.658126 -1.385525e-17)
(14.95185 -5.067388 -7.031551e-18)
(15.02995 -4.442305 -7.220029e-18)
(14.94918 -3.781366 5.635733e-20)
(14.66474 -3.090131 7.264342e-18)
(14.11022 -2.383191 3.703433e-18)
(13.09105 -1.694903 -2.854985e-20)
(11.09445 -1.04731 -6.691906e-21)
(6.918681 -0.44081 4.500644e-19)
(1.454526 0.02452361 -9.228585e-19)
(-0.1518549 -0.05841567 -2.464443e-20)
(-4.631764 -0.9130765 1.566769e-20)
(-9.078211 -1.731125 4.893321e-18)
(-8.638764 -1.73837 3.475766e-20)
(-5.956315 -1.235157 0)
(-3.057677 -0.6344709 -3.996935e-18)
(-0.2137865 0.1888303 -2.807881e-18)
(5.711261 2.349542 -9.954995e-21)
(6.271343 2.390436 2.500232e-18)
(-4.106546 -2.558984 -1.22608e-17)
(-10.21227 -5.682651 0)
(-9.417526 -5.381892 0)
(-6.985703 -4.264154 -8.139327e-18)
(-4.576402 -3.015029 0)
(-2.799913 -1.991761 1.399649e-20)
(-1.32065 -0.9591806 -9.972314e-19)
(0.4076982 0.4310541 5.423239e-19)
(1.959875 1.814757 -8.775167e-21)
(2.510253 2.458237 2.079655e-18)
(1.843934 1.948399 1.278901e-20)
(0.6717194 0.725213 -8.841909e-19)
(0.7384131 0.9689951 4.799233e-19)
(1.254599 1.785718 1.647096e-18)
(1.56611 2.36111 2.622622e-18)
(1.499743 2.328734 0)
(0.5771342 0.8829316 -1.192148e-20)
(-0.4756367 -1.028261 -2.959039e-18)
(-0.07169004 -0.1460026 0)
(0.4165938 1.030565 4.156713e-18)
(0.2917382 0.7134302 -3.282646e-20)
(0.04688074 0.2184434 1.647614e-20)
(0.1529647 0.7097341 2.147776e-18)
(-0.1482868 -1.112028 5.430918e-22)
(-0.5640127 -4.254798 0)
(-0.624603 -5.530356 1.114493e-18)
(-0.4595168 -5.419172 8.516636e-21)
(-0.2379713 -4.871604 1.680182e-21)
(-0.05350195 -4.089334 -2.017291e-21)
(-0.08026154 -3.274949 -1.347353e-19)
(-0.02271549 -2.102456 2.261135e-19)
(-0.05682226 -0.8984944 0)
(-0.2184199 0.3806692 4.037593e-19)
(-0.409763 1.55587 0)
(-0.6684639 2.48819 2.131935e-18)
(-0.953363 3.221613 1.037491e-20)
(-1.189089 3.686415 -1.035178e-20)
(-1.319974 3.942103 -3.032058e-18)
(-1.149228 3.375426 -3.075344e-18)
(-0.4613051 1.468226 0)
(0.1025881 -0.1481576 2.587719e-20)
(-0.1292547 0.06548038 -9.20518e-22)
(-0.3852638 0.4549701 -3.086383e-18)
(-0.7267867 1.023601 -6.023191e-18)
(-0.6248117 0.933795 2.916164e-18)
(-0.2195412 0.3456776 -2.748848e-18)
(-0.2283979 0.264498 -2.091087e-20)
(-0.2269389 0.3021158 0)
(0.1301003 0.004241241 0)
(1.403408 -1.085652 0)
(3.24304 -2.609763 8.12412e-19)
(3.106606 -2.561175 6.271453e-21)
(1.246986 -1.247553 -6.181088e-21)
(-0.464844 -0.01707835 1.639235e-20)
(-1.814191 0.8417687 -1.618825e-20)
(-3.392675 1.58182 0)
(-5.58383 2.383695 0)
(-8.006435 3.311024 1.993351e-17)
(-9.2469 3.825408 1.005721e-19)
(-9.077169 4.277415 -8.950608e-20)
(0.3365931 0.8123677 2.449254e-18)
(6.825241 -2.141933 1.313469e-18)
(2.836666 -1.204466 -2.092039e-20)
(1.179531 -0.6172961 -3.439707e-18)
(-0.2133372 -0.2926534 2.542357e-18)
(-0.8748559 -0.06895025 4.031812e-21)
(-4.797513 0.4583204 1.674949e-18)
(0.2874212 0.3261652 0)
(9.547246 0.70103 2.698642e-19)
(14.72636 1.292238 2.037244e-18)
(16.80676 1.713489 2.14471e-18)
(17.13149 2.141826 2.261822e-18)
(17.12475 2.697295 -7.22023e-20)
(16.98545 3.318231 4.789393e-18)
(16.76892 3.938358 -3.669568e-20)
(16.49429 4.558988 0)
(16.16414 5.158888 9.176027e-18)
(15.78688 5.740348 0)
(15.36695 6.295348 -6.526373e-20)
(14.89327 6.807604 6.541826e-20)
(14.36507 7.274385 7.836831e-18)
(13.78916 7.689611 -5.489314e-20)
(13.17253 8.053054 6.827863e-18)
(12.52305 8.360275 -6.305621e-18)
(11.84463 8.60829 0)
(11.14706 8.805634 3.691004e-20)
(10.43693 8.947477 -4.518487e-18)
(9.7102 9.02134 -7.554111e-18)
(8.971831 9.028819 0)
(8.233848 8.979647 -2.439348e-18)
(7.50498 8.874712 -1.069484e-20)
(6.785985 8.706793 1.016277e-18)
(6.078288 8.475071 -1.844187e-22)
(5.388622 8.185036 1.868276e-22)
(4.720847 7.833735 -1.045645e-18)
(4.07886 7.424461 1.735654e-18)
(3.473113 6.962021 0)
(2.904856 6.451477 0)
(2.379208 5.896672 -1.850237e-20)
(1.900638 5.299439 0)
(1.472198 4.661356 0)
(1.095905 3.985568 0)
(0.7766505 3.28255 -2.88998e-18)
(0.5130636 2.562465 2.321901e-20)
(0.3165594 1.817752 1.285448e-20)
(0.1755786 1.062634 -6.284051e-21)
(0.0990199 0.3277665 -8.693289e-19)
(0.08389394 -0.3736118 3.472816e-21)
(0.1436169 -1.128754 -8.407006e-19)
(0.2554009 -1.932424 1.586877e-18)
(0.4347719 -2.727201 1.20273e-20)
(0.6786823 -3.49448 -2.799777e-18)
(0.9825242 -4.232443 -4.059014e-20)
(1.345103 -4.940056 2.365911e-18)
(1.762742 -5.610986 -2.072594e-18)
(2.235735 -6.244864 0)
(2.756608 -6.841437 -5.782318e-18)
(3.32372 -7.386418 -1.488227e-20)
(3.933991 -7.883145 1.539626e-18)
(4.581742 -8.335491 8.2051e-19)
(5.264407 -8.730376 0)
(5.978953 -9.071196 0)
(6.718293 -9.361432 0)
(7.475245 -9.584407 1.981167e-20)
(8.244175 -9.737131 -1.965435e-20)
(9.024287 -9.830689 3.627862e-18)
(9.810296 -9.863329 5.983558e-21)
(10.59779 -9.831431 -5.161744e-18)
(11.38093 -9.739624 -8.689586e-20)
(12.14943 -9.583375 1.298121e-17)
(12.89524 -9.36039 7.143654e-18)
(13.61466 -9.072405 -5.785957e-20)
(14.30885 -8.727287 8.199718e-18)
(14.97306 -8.32971 6.671728e-20)
(15.59892 -7.875764 -7.482943e-20)
(16.17884 -7.370975 7.450207e-20)
(16.70866 -6.818216 8.098136e-20)
(17.1886 -6.223731 1.060684e-17)
(17.61197 -5.591707 -8.334001e-20)
(17.97254 -4.929838 0)
(18.2812 -4.245512 0)
(18.54489 -3.552436 0)
(18.74576 -2.863434 0)
(18.85857 -2.179758 2.116933e-20)
(18.82117 -1.543896 -2.099882e-20)
(18.52519 -1.052619 1.235135e-18)
(16.75718 -0.6849987 4.691737e-21)
(12.17075 -0.2704651 0)
(3.875482 -0.1698735 -1.368486e-18)
(-5.836949 -1.146652 3.611224e-18)
(-5.656485 -1.139585 -4.314922e-18)
(-2.364851 -0.1201171 4.618987e-20)
(-0.5267969 0.3393981 -4.823992e-18)
(1.107838 0.6760718 2.748056e-20)
(2.416972 1.292992 0)
(6.611369 2.959804 1.683497e-18)
(5.684269 1.648113 -3.739505e-18)
(-7.632567 -4.806694 -8.647517e-18)
(-10.18706 -5.505339 4.325595e-21)
(-8.938831 -4.62431 -1.603596e-19)
(-6.53589 -3.523598 6.857266e-20)
(-4.211355 -2.437417 0)
(-2.546901 -1.588482 2.153775e-18)
(-1.189244 -0.6091194 7.92103e-19)
(0.3753394 0.7293407 6.91101e-21)
(2.16418 2.318616 9.565529e-19)
(3.532695 3.583795 -1.686421e-18)
(2.851917 2.88032 -7.203636e-19)
(0.588978 0.5118841 -4.084239e-21)
(0.6387316 0.9838775 -3.862795e-19)
(1.211393 1.868181 -6.773077e-21)
(1.512558 2.397558 -2.154081e-18)
(1.833179 2.816829 1.868254e-20)
(1.166822 1.623463 2.52197e-21)
(-0.7588998 -1.661101 -1.767613e-20)
(-0.01450519 0.3635939 0)
(0.4928287 1.394212 0)
(0.5234928 1.25748 -3.49199e-18)
(0.2092568 0.6484807 0)
(-0.1291475 -1.077789 -3.358699e-18)
(-0.667772 -4.52478 1.651228e-18)
(-0.9903558 -6.518078 -1.3647e-20)
(-0.8977608 -6.195429 1.407048e-20)
(-0.6912067 -5.766052 8.657096e-19)
(-0.4423401 -5.186033 -3.882218e-19)
(-0.2208215 -4.320796 -1.588611e-19)
(-0.1807339 -3.289418 1.079816e-19)
(-0.1405858 -2.127504 -1.821877e-19)
(-0.1773476 -0.924928 5.161026e-21)
(-0.3497859 0.3586839 -3.326414e-19)
(-0.5112631 1.531407 0)
(-0.7441689 2.455103 -1.741352e-18)
(-0.991686 3.190643 -1.699526e-20)
(-1.179141 3.683916 1.181746e-18)
(-1.257422 3.867596 2.509799e-18)
(-1.217135 3.795536 2.492755e-18)
(-0.8123648 2.660493 2.532407e-18)
(-0.4069354 1.156118 -2.0837e-20)
(-0.4634321 0.6797651 0)
(-0.5889609 0.7054081 0)
(-0.7509418 1.043627 2.444272e-18)
(-0.3892951 0.6979689 2.426892e-18)
(-0.06993186 0.228244 2.317945e-18)
(-0.2259564 0.2681719 3.459211e-20)
(-0.2188742 0.3601291 0)
(0.2457533 0.06438245 1.186785e-18)
(1.68102 -1.073756 7.744419e-19)
(3.440538 -2.655326 -6.605892e-19)
(2.769795 -2.436397 0)
(0.9069046 -1.278789 7.132872e-19)
(-0.3148497 -0.3080528 0)
(-1.252016 0.3407865 -2.12051e-18)
(-2.567544 0.9149933 0)
(-4.572371 1.558825 -4.968785e-18)
(-6.897014 2.597084 -1.639473e-17)
(-8.008361 3.39708 0)
(-7.732293 4.307911 0)
(-1.923089 2.274582 3.35625e-20)
(5.914794 -1.619709 -1.066938e-18)
(6.270536 -2.005031 1.662851e-18)
(6.814375 -1.703828 5.165175e-18)
(6.402467 -1.48641 -1.834562e-18)
(5.160068 -1.012228 2.554057e-18)
(3.598889 0.1066888 -1.284612e-18)
(9.145168 0.8818259 0)
(15.7967 1.401261 0)
(17.07445 1.713591 -1.587552e-18)
(16.81067 2.022267 -1.773191e-18)
(16.65774 2.534486 -3.696598e-18)
(16.59895 3.164836 3.779448e-18)
(16.48487 3.81757 9.058764e-20)
(16.30663 4.459269 -6.073263e-20)
(16.06127 5.076148 0)
(15.74369 5.6574 0)
(15.36593 6.210637 7.212944e-18)
(14.94248 6.735265 -6.969407e-18)
(14.46982 7.215222 0)
(13.94448 7.650004 0)
(13.37498 8.031845 9.00273e-20)
(12.76652 8.363535 -5.692586e-18)
(12.12831 8.638531 0)
(11.46438 8.853412 -4.570208e-18)
(10.78227 9.02008 -4.081609e-18)
(10.0905 9.132107 -3.523221e-18)
(9.38591 9.175494 3.034205e-18)
(8.66972 9.1552 -3.46547e-20)
(7.95491 9.081452 1.943844e-18)
(7.250011 8.95432 0)
(6.557437 8.764986 -8.279075e-19)
(5.877608 8.513722 7.124462e-22)
(5.214349 8.207943 8.849023e-21)
(4.578723 7.839578 -9.286391e-19)
(3.965563 7.417823 0)
(3.387896 6.94536 -2.022069e-18)
(2.845987 6.427717 -2.15142e-20)
(2.346957 5.867762 3.032851e-18)
(1.892226 5.268279 1.752305e-18)
(1.485934 4.629875 -1.968346e-18)
(1.128728 3.955807 -2.170601e-18)
(0.8252885 3.255792 2.347778e-18)
(0.5726277 2.540608 -2.513589e-18)
(0.3881201 1.800601 -1.289378e-18)
(0.2489302 1.0519 2.721873e-18)
(0.1700271 0.3238104 1.419742e-18)
(0.1534656 -0.3755566 2.853712e-21)
(0.2227031 -1.12614 6.950171e-19)
(0.3291085 -1.923777 -1.034121e-20)
(0.4994528 -2.711538 0)
(0.7303711 -3.473066 -1.74708e-20)
(1.016443 -4.207252 -1.47181e-20)
(1.358632 -4.912495 -1.871988e-18)
(1.751636 -5.583042 3.401241e-18)
(2.201348 -6.217256 -1.468402e-18)
(2.693869 -6.817734 2.345021e-18)
(3.230198 -7.369034 1.647448e-20)
(3.811725 -7.873382 0)
(4.428087 -8.337354 7.302015e-19)
(5.078703 -8.746147 -2.989221e-21)
(5.764918 -9.101082 4.687726e-19)
(6.474722 -9.409813 0)
(7.200816 -9.654631 1.706886e-18)
(7.94217 -9.829942 0)
(8.695375 -9.949222 -5.91049e-20)
(9.454504 -10.01061 3.516536e-18)
(10.2192 -10.00745 0)
(10.97912 -9.948491 -4.75375e-18)
(11.7267 -9.827001 -5.323901e-18)
(12.45394 -9.639769 -5.857228e-18)
(13.1568 -9.388234 0)
(13.83853 -9.07873 -1.369934e-17)
(14.4924 -8.718315 1.09532e-19)
(15.11086 -8.300694 0)
(15.68614 -7.832688 0)
(16.21437 -7.31505 0)
(16.6947 -6.756296 8.59371e-18)
(17.12024 -6.164359 -8.854056e-18)
(17.48317 -5.534072 0)
(17.77306 -4.870965 0)
(17.99985 -4.177802 4.552718e-18)
(18.16115 -3.465074 3.610085e-20)
(18.24922 -2.749071 0)
(18.26093 -2.040973 0)
(18.33001 -1.429679 -2.042941e-18)
(18.54965 -1.009636 2.299289e-19)
(17.87052 -0.689586 0)
(11.84191 -0.5741482 8.783443e-19)
(-0.02712322 -0.8391615 7.094951e-20)
(0.2306769 0.1453082 -3.722606e-22)
(4.225543 1.538228 -4.872708e-20)
(6.049691 2.076168 3.483864e-18)
(6.648241 2.229095 2.416064e-18)
(6.492571 2.598272 3.169213e-20)
(7.076186 3.083842 1.211615e-20)
(3.243971 -0.1333488 1.417194e-18)
(-7.664025 -5.651906 6.667766e-18)
(-8.533528 -4.876446 0)
(-7.986145 -3.884639 8.830777e-18)
(-5.671537 -2.65642 0)
(-3.396683 -1.624278 -3.713467e-20)
(-1.928716 -0.966652 -1.742246e-18)
(-0.8264196 -0.1150496 2.481848e-21)
(0.4065466 1.051642 -2.399901e-21)
(2.042067 2.486742 -7.708944e-19)
(3.608804 3.683444 7.002658e-19)
(2.888976 2.628341 5.777692e-19)
(0.5324247 0.1955799 2.930634e-19)
(0.5608319 1.024029 -3.252163e-19)
(1.164757 1.935334 0)
(1.503857 2.472935 -7.380998e-21)
(1.763239 2.577733 0)
(1.521297 1.790139 -1.841996e-18)
(-0.7452346 -1.767689 1.993608e-18)
(0.05682818 0.9748337 0)
(0.4567389 1.415169 0)
(0.6258988 1.327239 5.727663e-18)
(0.1794622 -0.04628107 -1.328837e-18)
(-0.4503816 -3.579811 2.547514e-18)
(-0.8198112 -6.186817 -1.045646e-20)
(-0.9004204 -6.420923 1.081424e-20)
(-0.8113345 -6.02749 0)
(-0.646256 -5.800858 -7.071856e-19)
(-0.4603782 -5.164267 6.201506e-19)
(-0.2829929 -4.326418 1.314481e-19)
(-0.315238 -3.350138 -1.760564e-19)
(-0.2812065 -2.203287 -4.3901e-21)
(-0.3147391 -1.009957 4.501985e-21)
(-0.4946669 0.2661763 -8.975156e-21)
(-0.6212725 1.449979 8.990976e-21)
(-0.8333502 2.374564 7.126811e-19)
(-1.059248 3.116754 -1.392831e-20)
(-1.227739 3.644681 -9.760836e-19)
(-1.249649 3.806611 3.122488e-20)
(-1.151185 3.757254 -2.030777e-18)
(-0.9269401 3.219798 -2.86565e-20)
(-0.7433896 2.132267 0)
(-0.7506607 1.31985 0)
(-0.740588 0.9487641 -2.074545e-18)
(-0.7015574 1.0228 -2.065441e-18)
(-0.1038278 0.4221366 -3.999551e-18)
(0.01454642 0.13779 -1.920554e-18)
(-0.237478 0.2320946 0)
(-0.2227344 0.4155818 0)
(0.2719461 0.2426243 -1.940448e-18)
(1.722574 -0.7948183 -1.261857e-18)
(3.114806 -2.266783 7.96996e-21)
(2.193171 -2.196506 -1.663433e-20)
(0.6900043 -1.383502 -1.162189e-18)
(0.08144246 -0.719198 -1.097824e-18)
(-0.4382661 -0.2902517 1.801922e-18)
(-1.547336 0.1323713 2.665829e-18)
(-3.548606 0.6644469 3.91601e-18)
(-5.81947 1.787257 6.899358e-18)
(-6.80284 2.833528 0)
(-5.569855 4.013533 -8.390903e-20)
(-2.268408 3.198423 -3.070756e-18)
(5.923606 -1.002165 2.442817e-20)
(10.01072 -2.520388 -1.41971e-21)
(11.80289 -2.46239 -2.001406e-18)
(12.61782 -2.311923 -1.312995e-18)
(12.9223 -1.562378 -6.85684e-20)
(13.15592 0.03097576 -8.766192e-19)
(15.61804 1.261852 -3.32283e-19)
(17.40322 1.548278 -2.516456e-21)
(16.64466 1.490682 0)
(16.56485 1.69776 -2.296158e-20)
(16.70792 2.147184 1.560602e-18)
(16.74149 2.71681 -6.254437e-18)
(16.67375 3.344863 4.908285e-20)
(16.515 3.976675 -3.179073e-18)
(16.27147 4.599899 -9.614284e-20)
(15.95776 5.188026 -6.037984e-18)
(15.58295 5.752275 -5.347058e-21)
(15.16093 6.295578 5.750238e-18)
(14.69092 6.791611 -5.402666e-18)
(14.16726 7.245982 0)
(13.59893 7.647138 7.274704e-20)
(12.98993 8.000277 -7.319818e-20)
(12.34927 8.298263 0)
(11.68055 8.537792 3.765143e-18)
(10.99261 8.72894 7.374001e-20)
(10.29399 8.865279 2.94486e-18)
(9.582654 8.931696 -2.429285e-18)
(8.860926 8.931265 -1.976081e-18)
(8.137105 8.878927 -1.570575e-18)
(7.424162 8.771644 -1.066096e-18)
(6.724066 8.60053 6.039162e-21)
(6.035595 8.366799 -6.103169e-21)
(5.363087 8.07834 0)
(4.718444 7.726005 7.548595e-19)
(4.09578 7.319465 -2.248325e-20)
(3.509565 6.860711 1.682697e-18)
(2.959866 6.355499 2.064156e-18)
(2.455544 5.806243 -2.460288e-18)
(1.995316 5.216934 -1.436872e-18)
(1.58437 4.588013 -4.003084e-21)
(1.222913 3.923032 1.778548e-18)
(0.9180773 3.230789 3.081446e-20)
(0.6619408 2.523401 2.011308e-18)
(0.4789746 1.788418 1.693571e-20)
(0.3374834 1.043754 -1.1355e-18)
(0.2552924 0.3203343 -5.77631e-19)
(0.2370991 -0.3816172 -7.078378e-23)
(0.3179777 -1.128637 5.508434e-19)
(0.4252966 -1.919682 8.459133e-21)
(0.5957522 -2.700044 -1.01194e-18)
(0.829338 -3.453958 1.896148e-18)
(1.11855 -4.179287 0)
(1.464371 -4.874107 -4.373227e-21)
(1.861003 -5.533038 -1.398344e-18)
(2.316969 -6.154632 1.23588e-18)
(2.81406 -6.742917 -2.023871e-18)
(3.359728 -7.279096 2.073941e-20)
(3.952328 -7.767719 -2.051432e-20)
(4.575067 -8.217844 -5.997789e-19)
(5.235636 -8.60947 0)
(5.935652 -8.944939 -3.924953e-19)
(6.652589 -9.237731 2.717369e-20)
(7.387255 -9.463663 -7.12584e-20)
(8.139153 -9.617836 -1.808692e-18)
(8.901396 -9.716203 -2.423228e-18)
(9.669026 -9.755417 -2.094301e-20)
(10.44153 -9.729057 3.300519e-18)
(11.21046 -9.644496 -5.559647e-20)
(11.96459 -9.49805 -4.236977e-18)
(12.69797 -9.284063 0)
(13.40709 -9.004691 5.083498e-18)
(14.09245 -8.669682 5.561963e-18)
(14.74647 -8.286956 5.733926e-18)
(15.36465 -7.845862 -6.069993e-18)
(15.93819 -7.356054 6.469261e-18)
(16.46467 -6.817037 0)
(16.94309 -6.237587 -1.40627e-17)
(17.36549 -5.630367 1.460999e-17)
(17.72393 -4.986052 -1.722392e-19)
(18.01338 -4.309285 -3.711075e-18)
(18.2305 -3.612281 -3.733649e-18)
(18.36651 -2.911391 0)
(18.40383 -2.226772 1.870529e-18)
(18.32044 -1.582955 -1.813767e-18)
(18.13859 -1.061153 8.571352e-19)
(17.99926 -0.7441145 -1.998802e-19)
(18.71391 -0.7181364 -3.566272e-19)
(17.46087 -0.9402718 1.029824e-20)
(10.51922 -0.6046015 -1.884443e-18)
(9.277092 1.288615 5.206215e-20)
(10.8961 2.980097 0)
(11.50613 3.494997 0)
(11.24401 3.453315 -4.962705e-20)
(10.11422 3.523656 5.123971e-20)
(8.017492 3.010946 0)
(1.783409 -1.720103 0)
(-6.142159 -5.82114 0)
(-7.466248 -4.386817 9.786341e-18)
(-6.982486 -3.011888 -1.460187e-17)
(-4.85692 -1.738816 4.464099e-18)
(-2.543312 -0.740352 -2.513531e-18)
(-1.184982 -0.2442287 -4.900922e-20)
(-0.3551609 0.4504127 5.702373e-19)
(0.4873811 1.427217 -2.425058e-19)
(1.844938 2.650959 -9.061126e-21)
(3.370708 3.469764 1.314074e-21)
(2.494298 1.813236 7.878714e-21)
(0.5516311 -0.02496581 -1.899822e-22)
(0.4095762 1.04 2.655198e-19)
(1.082627 1.996155 0)
(1.484408 2.509817 1.463422e-18)
(1.716436 2.378379 -1.710722e-18)
(1.818739 1.757096 1.51043e-18)
(-0.5929942 -1.596127 0)
(0.008732219 1.37584 0)
(0.3602071 1.251877 -3.670336e-20)
(0.6605985 1.07613 -2.334403e-18)
(0.01412406 -1.773988 1.064402e-18)
(-0.5918656 -5.403216 -9.895662e-19)
(-0.8048527 -6.496185 0)
(-0.9105633 -6.14392 0)
(-0.9108729 -6.097679 0)
(-0.7324607 -5.793946 -5.69766e-19)
(-0.5689089 -5.191742 -2.620142e-19)
(-0.4006179 -4.364532 -2.147073e-19)
(-0.467088 -3.446995 7.17777e-20)
(-0.4405817 -2.319571 0)
(-0.4688205 -1.15179 -2.231942e-19)
(-0.6542979 0.08880246 0)
(-0.7409569 1.295008 -5.072415e-19)
(-0.9290271 2.228384 0)
(-1.131976 2.993571 0)
(-1.252226 3.56618 -7.887154e-19)
(-1.235293 3.798098 -1.725543e-18)
(-1.083182 3.692605 1.708063e-18)
(-0.8982872 3.363079 -1.678482e-18)
(-0.841277 2.593266 1.720558e-18)
(-0.8504065 1.688622 0)
(-0.7875045 1.090957 3.439278e-18)
(-0.5772422 0.9716659 1.700457e-18)
(0.1481479 0.2170674 1.69685e-18)
(0.05219236 0.08111786 -5.151223e-20)
(-0.2242206 0.150374 -4.09053e-20)
(-0.165103 0.3911589 -1.154077e-18)
(0.2465217 0.4651752 1.607715e-18)
(1.559412 -0.3133867 5.202442e-19)
(2.570942 -1.675224 1.314828e-20)
(1.610837 -1.896431 3.716457e-19)
(0.6452072 -1.520079 4.855175e-19)
(0.6808276 -1.18309 8.983273e-19)
(0.5083487 -0.9618284 0)
(-0.5093252 -0.686233 -8.636127e-21)
(-2.446343 -0.3258875 0)
(-4.461754 0.778073 5.717537e-18)
(-5.046507 2.111536 8.754034e-18)
(-3.408489 3.640596 6.841604e-18)
(-1.132196 3.620696 -1.628479e-19)
(6.794476 -0.3327045 3.149992e-20)
(12.27951 -2.524924 -2.11729e-18)
(14.17674 -2.738593 0)
(15.57985 -2.721053 -9.891562e-19)
(16.81841 -1.946187 -1.429116e-18)
(17.4158 -0.193479 1.341931e-18)
(17.4878 1.229018 2.573728e-19)
(16.79925 1.514823 0)
(16.19967 1.570605 5.555835e-19)
(16.3632 1.962794 0)
(16.44876 2.486521 0)
(16.45741 3.081238 2.613415e-18)
(16.37775 3.713882 -4.007539e-20)
(16.22167 4.321009 4.672992e-20)
(15.98389 4.92139 -2.516775e-18)
(15.676 5.481867 5.072447e-18)
(15.30724 6.017577 -4.84001e-18)
(14.89397 6.532707 -4.660821e-18)
(14.43876 6.991103 2.190471e-19)
(13.92855 7.413127 -1.34893e-19)
(13.37692 7.780489 -1.180481e-19)
(12.78402 8.105072 -3.381086e-18)
(12.16169 8.376218 -3.415597e-18)
(11.51197 8.5893 -8.855405e-20)
(10.84104 8.759849 2.798776e-18)
(10.16387 8.87528 0)
(9.475072 8.921503 2.000194e-18)
(8.770577 8.907186 1.626514e-18)
(8.06497 8.842856 1.197274e-18)
(7.372492 8.724895 8.770114e-19)
(6.691534 8.545865 0)
(6.022374 8.304638 0)
(5.366119 8.013394 -2.989189e-19)
(4.740229 7.657735 0)
(4.131057 7.252089 0)
(3.56 6.795111 1.44984e-18)
(3.026117 6.292524 -3.278725e-20)
(2.5306 5.74941 -1.323024e-20)
(2.077562 5.166222 -3.900233e-20)
(1.674366 4.543649 2.694617e-18)
(1.321513 3.885149 0)
(1.026629 3.199507 0)
(0.7667977 2.503832 1.6994e-18)
(0.5892982 1.775629 8.49673e-19)
(0.4446407 1.034726 9.142072e-19)
(0.3582116 0.316464 -4.721407e-19)
(0.3388018 -0.3895269 0)
(0.4358576 -1.129321 -3.297119e-22)
(0.5448268 -1.912521 2.684808e-20)
(0.7050651 -2.685731 8.019414e-19)
(0.9310284 -3.429647 -1.55291e-18)
(1.214379 -4.142915 -4.31581e-20)
(1.554132 -4.825909 1.305404e-18)
(1.943889 -5.47406 3.812579e-20)
(2.39284 -6.08675 1.998371e-18)
(2.874835 -6.670259 -1.712204e-20)
(3.405729 -7.202092 -1.336627e-18)
(3.988065 -7.687779 3.439305e-20)
(4.595094 -8.138906 0)
(5.234009 -8.533835 1.578503e-19)
(5.918702 -8.872391 0)
(6.620763 -9.170602 0)
(7.332968 -9.406556 -1.110753e-18)
(8.064834 -9.570649 2.976503e-18)
(8.809501 -9.68022 6.555708e-20)
(9.556298 -9.734313 -1.276034e-19)
(10.30823 -9.724578 -2.711336e-18)
(11.05599 -9.660953 -3.039149e-18)
(11.78952 -9.537 3.605949e-18)
(12.50098 -9.349796 -3.88339e-18)
(13.18815 -9.09994 -8.423059e-20)
(13.85616 -8.792209 0)
(14.49227 -8.441797 -4.964604e-18)
(15.09455 -8.033051 1.040048e-17)
(15.65304 -7.579605 -5.506018e-18)
(16.16514 -7.078518 0)
(16.63398 -6.533802 1.026347e-19)
(17.0481 -5.961138 -5.85605e-18)
(17.39968 -5.348701 -9.320838e-20)
(17.68457 -4.699356 1.499415e-19)
(17.89917 -4.026486 -9.580114e-20)
(18.03708 -3.347301 0)
(18.08698 -2.662655 -2.983337e-18)
(18.02887 -1.991438 1.41241e-18)
(17.89679 -1.399891 6.801779e-19)
(17.64115 -0.9204632 -1.034665e-20)
(17.87164 -0.7609258 2.937463e-19)
(19.01754 -1.059366 5.463288e-19)
(17.63117 -0.3020448 0)
(17.03207 2.118022 1.941969e-18)
(16.42006 3.920238 -7.696428e-20)
(15.28564 4.303284 2.095608e-18)
(14.14961 4.087637 0)
(12.58409 3.891628 0)
(9.188989 2.664408 0)
(1.627364 -2.890736 4.648702e-20)
(-4.006941 -5.631229 5.060835e-18)
(-5.970945 -3.738535 -8.716975e-18)
(-5.612884 -1.885403 6.353707e-18)
(-3.872707 -0.6916651 -7.274067e-18)
(-1.65838 0.1498949 2.11853e-18)
(-0.3861741 0.5090448 0)
(0.200854 1.038541 -4.546007e-19)
(0.6162207 1.794822 1.990401e-19)
(1.601221 2.722165 -5.260352e-19)
(2.974878 2.968167 1.618985e-20)
(1.917918 0.7342603 8.632743e-21)
(0.5593151 -0.1765397 -9.421314e-21)
(0.1590997 0.9547642 0)
(0.9200164 2.022693 -7.617772e-19)
(1.438485 2.508677 4.14633e-20)
(1.707884 2.244125 2.802218e-18)
(2.113747 1.661724 -1.258867e-18)
(-0.3116154 -1.197759 8.911115e-20)
(-0.1791951 1.432272 -1.58868e-18)
(0.1977682 0.749889 0)
(0.5686493 -0.02506443 -1.875852e-18)
(-0.1126773 -3.77851 8.264773e-19)
(-0.5696932 -6.319331 -5.038501e-20)
(-0.7507806 -6.329698 9.524035e-19)
(-0.905461 -6.164251 -4.588259e-20)
(-0.8997555 -6.189183 1.5943e-20)
(-0.7961884 -5.859016 4.743112e-19)
(-0.6780494 -5.262272 -2.973994e-21)
(-0.5309174 -4.441657 2.967864e-21)
(-0.6448491 -3.596336 3.361696e-21)
(-0.6253797 -2.478322 9.642997e-20)
(-0.6513326 -1.342783 1.813608e-19)
(-0.8426139 -0.1627911 -1.827327e-19)
(-0.8851857 1.077341 4.154691e-19)
(-1.040717 2.02152 0)
(-1.212415 2.818622 5.228871e-19)
(-1.289828 3.452546 6.852998e-19)
(-1.22399 3.772881 1.424269e-18)
(-1.039452 3.693171 0)
(-0.8220417 3.378671 0)
(-0.783988 2.73987 -1.405906e-18)
(-0.8010622 1.849912 -4.422756e-20)
(-0.7459638 1.155225 -1.384675e-18)
(-0.3845093 0.8916551 -1.38989e-18)
(0.3476215 0.09933107 -1.362292e-18)
(0.079961 0.008187981 1.340797e-18)
(-0.2014872 0.07177171 -1.141253e-18)
(-0.1043387 0.3447011 9.250478e-19)
(0.2701311 0.5978226 -6.424663e-19)
(1.292076 0.2527932 0)
(1.989886 -1.031856 0)
(1.155746 -1.62213 -3.206433e-19)
(0.7838905 -1.677412 0)
(1.426613 -1.651488 -2.980215e-20)
(1.503966 -1.643333 -1.664462e-20)
(0.5943037 -1.552002 -1.633678e-18)
(-1.014772 -1.521586 -6.951303e-20)
(-2.545068 -0.4492248 6.318548e-20)
(-2.648396 1.169502 -7.615309e-18)
(-1.079693 3.197436 1.95667e-19)
(1.144858 3.754304 1.103349e-18)
(8.272199 0.3952063 -1.949153e-20)
(13.1417 -2.040005 8.655573e-19)
(14.18953 -2.449018 -3.32591e-20)
(15.63392 -2.557047 3.465971e-18)
(17.04672 -1.887404 3.052054e-20)
(17.63976 -0.3591695 -2.731364e-20)
(17.11849 0.9854354 -4.490031e-19)
(16.34069 1.334418 -3.566935e-21)
(16.24626 1.450979 -4.644961e-19)
(16.39406 1.787711 -3.081554e-20)
(16.48305 2.239972 -9.733784e-19)
(16.49696 2.779306 2.04248e-18)
(16.41763 3.389924 -2.057638e-18)
(16.26037 3.991249 4.018334e-18)
(16.02152 4.597068 2.203152e-18)
(15.71587 5.16849 0)
(15.34506 5.722648 0)
(14.93169 6.258326 3.780346e-18)
(14.4767 6.734809 3.606332e-18)
(13.96621 7.173889 0)
(13.41693 7.551887 -9.480337e-20)
(12.82378 7.889666 3.066493e-18)
(12.19865 8.178655 2.721716e-18)
(11.55 8.40213 2.374523e-18)
(10.88497 8.577158 -6.243919e-20)
(10.20976 8.703803 -1.774684e-18)
(9.518593 8.764607 4.406204e-20)
(8.818914 8.755165 -4.449755e-20)
(8.121814 8.693509 -1.009249e-18)
(7.432405 8.58395 6.635722e-19)
(6.74811 8.41892 0)
(6.087187 8.181064 0)
(5.433761 7.898846 5.087538e-19)
(4.816929 7.548148 -9.267978e-21)
(4.212463 7.150208 -8.896625e-21)
(3.657168 6.696753 -1.117706e-18)
(3.13207 6.200626 -2.820563e-18)
(2.630402 5.673799 1.583526e-18)
(2.180565 5.102537 -1.89784e-18)
(1.782262 4.49063 -1.053409e-18)
(1.438145 3.840958 -3.599745e-20)
(1.151537 3.160217 0)
(0.8863226 2.479499 -1.325573e-18)
(0.72317 1.762156 -4.469939e-20)
(0.5730893 1.024829 -7.593298e-19)
(0.4830879 0.3121402 4.040775e-19)
(0.4645032 -0.3985542 -2.58649e-23)
(0.5773328 -1.127477 -3.912236e-19)
(0.6786408 -1.905103 3.324836e-20)
(0.8333689 -2.667289 -6.987899e-19)
(1.050285 -3.392601 1.272591e-18)
(1.327064 -4.088758 -1.217263e-18)
(1.66208 -4.758496 3.132359e-21)
(2.047568 -5.394755 9.85075e-19)
(2.500683 -5.995652 -1.591019e-18)
(2.973458 -6.573364 1.345284e-18)
(3.493072 -7.099595 1.001054e-18)
(4.075808 -7.576735 9.324639e-21)
(4.69018 -8.015928 9.766576e-21)
(5.321774 -8.404058 -1.201395e-19)
(5.989723 -8.743972 -1.567365e-19)
(6.691166 -9.034332 2.142207e-20)
(7.402253 -9.260408 8.046891e-19)
(8.125957 -9.418682 -2.390819e-18)
(8.862382 -9.524932 1.50993e-18)
(9.613673 -9.562226 -6.344759e-20)
(10.36305 -9.542798 -2.17967e-18)
(11.103 -9.475677 5.001956e-18)
(11.83646 -9.338962 9.139468e-20)
(12.54494 -9.141757 3.012453e-18)
(13.23232 -8.876342 -3.492073e-18)
(13.90214 -8.552379 1.079648e-19)
(14.53711 -8.189446 -3.919718e-18)
(15.13996 -7.762666 -3.991341e-18)
(15.69778 -7.293552 1.363925e-19)
(16.2116 -6.769128 -4.540303e-18)
(16.6811 -6.202926 4.667371e-18)
(17.0953 -5.61114 0)
(17.44511 -4.981123 0)
(17.72699 -4.32074 2.487327e-18)
(17.94112 -3.650719 2.457361e-18)
(18.08045 -2.978501 0)
(18.127 -2.322407 1.276569e-18)
(18.06761 -1.7013 1.142871e-18)
(17.91775 -1.187584 -5.717103e-19)