# Force and moment coefficients
# dragDir      : (1.0000000e+00 0.0000000e+00 0.0000000e+00)
# sideDir      : (0.0000000e+00 0.0000000e+00 -1.0000000e+00)
# liftDir      : (0.0000000e+00 1.0000000e+00 0.0000000e+00)
# rollAxis     : (1.0000000e+00 0.0000000e+00 0.0000000e+00)
# pitchAxis    : (0.0000000e+00 0.0000000e+00 -1.0000000e+00)
# yawAxis      : (0.0000000e+00 1.0000000e+00 0.0000000e+00)
# magUInf      : 2.0000000e+01
# lRef         : 1.0000000e+00
# Aref         : 7.9000000e-01
# CofR         : (0.0000000e+00 0.0000000e+00 0.0000000e+00)
#
# Time         	Cd             	Cd(f)          	Cd(r)          	Cl             	Cl(f)          	Cl(r)          	CmPitch        	CmRoll         	CmYaw          	Cs             	Cs(f)          	Cs(r)          
0.000240964    	9.7188306e-10	4.8594153e-10	4.8594153e-10	2.6166973e-12	1.3073067e-12	1.3093906e-12	-1.0419872e-15	1.4486202e-32	-1.3529861e-32	4.7645144e-29	2.3809042e-29	2.3836102e-29
0.000531538    	-1.3831513e-09	-6.9157566e-10	-6.9157566e-10	-3.3284908e-11	-1.6631395e-11	-1.6653512e-11	1.1058480e-14	-1.5784820e-32	1.5054783e-32	-5.2391317e-29	-2.6180604e-29	-2.6210713e-29
0.000604454    	6.9587468e-10	3.4793734e-10	3.4793734e-10	1.1302097e-10	5.6493612e-11	5.6527362e-11	-1.6875109e-14	8.4778318e-33	-5.4484168e-33	2.2713383e-29	1.1351243e-29	1.1362140e-29
0.000662874    	-5.4172211e-09	-2.7086106e-09	-2.7086106e-09	3.9106712e-10	1.9590952e-10	1.9515760e-10	3.7595711e-13	-3.7112574e-33	4.8571313e-32	-1.0003719e-28	-4.9970023e-29	-5.0067166e-29
0.000669934    	-4.6759208e-08	-2.3379604e-08	-2.3379604e-08	1.0899484e-08	5.4520070e-09	5.4474769e-09	2.2650445e-12	1.4091534e-32	5.7336453e-31	-1.1043565e-27	-5.5160487e-28	-5.5275160e-28
0.000670583    	-2.7595014e-07	-1.3797507e-07	-1.3797507e-07	7.2116802e-08	3.6072284e-08	3.6044518e-08	1.3882931e-11	1.1422086e-31	3.7420488e-30	-7.0864090e-27	-3.5394624e-27	-3.5469465e-27
0.000670715    	-9.9128933e-07	-4.9564466e-07	-4.9564466e-07	2.9487921e-07	1.4747487e-07	1.4740434e-07	3.5262453e-11	4.3226244e-31	1.2920203e-29	-2.4209138e-26	-1.2091649e-26	-1.2117489e-26
0.000670765    	-2.3501543e-06	-1.1750771e-06	-1.1750771e-06	8.3629972e-07	4.1820884e-07	4.1809088e-07	5.8977275e-11	1.1055952e-30	2.8357671e-29	-5.2339850e-26	-2.6141567e-26	-2.6198283e-26
0.000670792    	-4.4533977e-06	-2.2266989e-06	-2.2266989e-06	1.6768790e-06	8.3854442e-07	8.3833461e-07	1.0490229e-10	2.0816797e-30	4.6170860e-29	-8.3731487e-26	-4.1819572e-26	-4.1911914e-26
0.000670809    	-7.0703829e-06	-3.5351914e-06	-3.5351914e-06	2.8665773e-06	1.4334168e-06	1.4331604e-06	1.2820255e-10	3.2593066e-30	6.2172363e-29	-1.1046641e-25	-5.5171032e-26	-5.5295377e-26
0.000670822    	-1.0218960e-05	-5.1094800e-06	-5.1094800e-06	4.3605163e-06	2.1804402e-06	2.1800762e-06	1.8200623e-10	4.5831058e-30	7.6056331e-29	-1.3220479e-25	-6.6026338e-26	-6.6178451e-26
0.000670833    	-1.3367984e-05	-6.6839921e-06	-6.6839921e-06	6.2621160e-06	3.1312254e-06	3.1308906e-06	1.6735602e-10	6.0565468e-30	8.5806946e-29	-1.4534720e-25	-7.2587791e-26	-7.2759405e-26
0.000670842    	-1.6216157e-05	-8.1080783e-06	-8.1080783e-06	8.3004729e-06	4.1503597e-06	4.1501132e-06	1.2322130e-10	7.4708195e-30	8.8557331e-29	-1.4491403e-25	-7.2368460e-26	-7.2545574e-26
0.000670849    	-1.8427982e-05	-9.2139909e-06	-9.2139909e-06	1.0324299e-05	5.1622566e-06	5.1620428e-06	1.0689967e-10	8.7449986e-30	8.3327394e-29	-1.2938711e-25	-6.4610228e-26	-6.4776882e-26
0.000670856    	-1.9645517e-05	-9.8227586e-06	-9.8227586e-06	1.2406146e-05	6.2031580e-06	6.2029884e-06	8.4787725e-11	9.9223325e-30	7.0821824e-29	-1.0027001e-25	-5.0064182e-26	-5.0205826e-26
0.000670862    	-1.9801447e-05	-9.9007234e-06	-9.9007234e-06	1.4356433e-05	7.1782564e-06	7.1781764e-06	4.0007000e-11	1.0920840e-29	5.3531002e-29	-6.2693083e-26	-3.1293011e-26	-3.1400073e-26
0.000670868    	-1.9029001e-05	-9.5145004e-06	-9.5145004e-06	1.6291485e-05	8.1456523e-06	8.1458326e-06	-9.0176843e-11	1.1785212e-29	3.5526261e-29	-2.4571040e-26	-1.2249994e-26	-1.2321046e-26
0.000670873    	-1.8128613e-05	-9.0643067e-06	-9.0643067e-06	1.7823831e-05	8.9117365e-06	8.9120945e-06	-1.7897099e-10	1.2384898e-29	2.0954997e-29	5.9856330e-27	3.0137715e-27	2.9718615e-27
0.000670878    	-1.7415375e-05	-8.7076875e-06	-8.7076875e-06	1.8949010e-05	9.4742482e-06	9.4747622e-06	-2.5698601e-10	1.2636090e-29	9.2343864e-30	3.0648914e-26	1.5333691e-26	1.5315223e-26
0.000670883    	-1.7128047e-05	-8.5640234e-06	-8.5640234e-06	1.9386467e-05	9.6928407e-06	9.6936259e-06	-3.9263396e-10	1.2489801e-29	6.7797156e-30	3.6048635e-26	1.8031097e-26	1.8017538e-26
0.000670887    	-1.7774333e-05	-8.8871664e-06	-8.8871664e-06	1.9864854e-05	9.9320483e-06	9.9328054e-06	-3.7856073e-10	1.2528735e-29	1.1283473e-29	2.6733335e-26	1.3377951e-26	1.3355384e-26
0.000670891    	-1.8173814e-05	-9.0869068e-06	-9.0869068e-06	2.0006139e-05	1.0002677e-05	1.0003462e-05	-3.9281701e-10	1.2378434e-29	1.1816542e-29	2.5359103e-26	1.2691368e-26	1.2667735e-26
0.000670896    	-1.8648757e-05	-9.3243786e-06	-9.3243786e-06	1.9958662e-05	9.9790120e-06	9.9796504e-06	-3.1919182e-10	1.2185950e-29	1.2038410e-29	2.4281296e-26	1.2152687e-26	1.2128610e-26
0.0006709      	-1.8894522e-05	-9.4472609e-06	-9.4472609e-06	1.9753977e-05	9.8767224e-06	9.8772546e-06	-2.6611422e-10	1.1923054e-29	1.1351845e-29	2.5080756e-26	1.2551730e-26	1.2529026e-26
0.000670904    	-1.9065923e-05	-9.5329613e-06	-9.5329613e-06	1.9369310e-05	9.6844947e-06	9.6848150e-06	-1.6017766e-10	1.1630094e-29	1.0830638e-29	2.5427991e-26	1.2724826e-26	1.2703165e-26
0.000670908    	-1.8981278e-05	-9.4906389e-06	-9.4906389e-06	1.9219930e-05	9.6098126e-06	9.6101175e-06	-1.5241952e-10	1.1471812e-29	1.0658091e-29	2.5231847e-26	1.2626582e-26	1.2605266e-26
0.000670912    	-1.9082408e-05	-9.5412039e-06	-9.5412039e-06	1.8869061e-05	9.4344799e-06	9.4345807e-06	-5.0411861e-11	1.1257608e-29	1.0772287e-29	2.4328580e-26	1.2175062e-26	1.2153517e-26
0.000670916    	-1.8926158e-05	-9.4630789e-06	-9.4630789e-06	1.8808315e-05	9.4040803e-06	9.4042346e-06	-7.7188395e-11	1.1183455e-29	1.0812240e-29	2.3890348e-26	1.1955986e-26	1.1934362e-26
0.000670921    	-1.9038383e-05	-9.5191917e-06	-9.5191917e-06	1.8539489e-05	9.2697445e-06	9.2697442e-06	1.1004649e-13	1.1037178e-29	1.0956572e-29	2.3161205e-26	1.1591559e-26	1.1569646e-26
0.000670925    	-1.8940133e-05	-9.4700666e-06	-9.4700666e-06	1.8521962e-05	9.2609551e-06	9.2610065e-06	-2.5712300e-11	1.1014960e-29	1.0995815e-29	2.2944838e-26	1.1483415e-26	1.1461423e-26
0.000670929    	-1.9084916e-05	-9.5424581e-06	-9.5424581e-06	1.8302449e-05	9.1512720e-06	9.1511769e-06	4.7510999e-11	1.0916185e-29	1.1128554e-29	2.2432767e-26	1.1227512e-26	1.1205255e-26
0.000670933    	-1.9049036e-05	-9.5245181e-06	-9.5245181e-06	1.8362463e-05	9.1812474e-06	9.1812158e-06	1.5841630e-11	1.0941415e-29	1.1162856e-29	2.2420730e-26	1.1221528e-26	1.1199202e-26
0.000670937    	-1.9323036e-05	-9.6615180e-06	-9.6615180e-06	1.8164463e-05	9.0823460e-06	9.0821173e-06	1.1433679e-10	1.0860850e-29	1.1314653e-29	2.1988719e-26	1.1005674e-26	1.0983045e-26
0.000670941    	-1.9329479e-05	-9.6647395e-06	-9.6647395e-06	1.8274108e-05	9.1371355e-06	9.1369721e-06	8.1716295e-11	1.0914342e-29	1.1352217e-29	2.2089438e-26	1.1056071e-26	1.1033367e-26
0.000670946    	-1.9656857e-05	-9.8284285e-06	-9.8284285e-06	1.8100653e-05	9.0505153e-06	9.0501380e-06	1.8866104e-10	1.0852065e-29	1.1519871e-29	2.1713069e-26	1.0868055e-26	1.0845015e-26
0.00067095     	-1.9595155e-05	-9.7975773e-06	-9.7975773e-06	1.8295559e-05	9.1479052e-06	9.1476534e-06	1.2590843e-10	1.0944068e-29	1.1516269e-29	2.1979462e-26	1.1001247e-26	1.0978215e-26
0.000670954    	-1.9856012e-05	-9.9280060e-06	-9.9280060e-06	1.8145239e-05	9.0728291e-06	9.0724102e-06	2.0948649e-10	1.0886398e-29	1.1657532e-29	2.1651583e-26	1.0837449e-26	1.0814134e-26
0.000670958    	-1.9697520e-05	-9.8487601e-06	-9.8487601e-06	1.8413018e-05	9.2066167e-06	9.2064008e-06	1.0794005e-10	1.1021713e-29	1.1632687e-29	2.2075380e-26	1.1049323e-26	1.1026057e-26
0.000670962    	-2.0063139e-05	-1.0031570e-05	-1.0031570e-05	1.8264466e-05	9.1324532e-06	9.1320130e-06	2.2010173e-10	1.0969093e-29	1.1804591e-29	2.1730807e-26	1.0877208e-26	1.0853599e-26
0.000670967    	-1.9954721e-05	-9.9773607e-06	-9.9773607e-06	1.8541399e-05	9.2708248e-06	9.2705739e-06	1.2543696e-10	1.1107833e-29	1.1816679e-29	2.2126469e-26	1.1075051e-26	1.1051418e-26
0.000670971    	-2.0438939e-05	-1.0219469e-05	-1.0219469e-05	1.8356027e-05	9.1782902e-06	9.1777369e-06	2.7663760e-10	1.1040450e-29	1.2026825e-29	2.1699063e-26	1.0861558e-26	1.0837505e-26
0.000670975    	-2.0324219e-05	-1.0162109e-05	-1.0162109e-05	1.8700269e-05	9.3503103e-06	9.3499586e-06	1.7583127e-10	1.1217813e-29	1.2024988e-29	2.2226620e-26	1.1125335e-26	1.1101285e-26
0.000670979    	-2.0822518e-05	-1.0411259e-05	-1.0411259e-05	1.8570384e-05	9.2855082e-06	9.2848759e-06	3.1615726e-10	1.1171785e-29	1.2238148e-29	2.1860187e-26	1.0942331e-26	1.0917855e-26
0.000670983    	-2.0625632e-05	-1.0312816e-05	-1.0312816e-05	1.9003235e-05	9.5017967e-06	9.5014381e-06	1.7926297e-10	1.1392981e-29	1.2214243e-29	2.2543133e-26	1.1283781e-26	1.1259352e-26
0.000670988    	-2.1093617e-05	-1.0546808e-05	-1.0546808e-05	1.8928472e-05	9.4645385e-06	9.4639340e-06	3.0228112e-10	1.1372520e-29	1.2414762e-29	2.2263120e-26	1.1143975e-26	1.1119145e-26
0.000670992    	-2.0990657e-05	-1.0495328e-05	-1.0495328e-05	1.9309706e-05	9.6550545e-06	9.6546513e-06	2.0162928e-10	1.1571365e-29	1.2432014e-29	2.2830361e-26	1.1427613e-26	1.1402749e-26
0.000670996    	-2.1545046e-05	-1.0772523e-05	-1.0772523e-05	1.9207026e-05	9.6038618e-06	9.6031639e-06	3.4899202e-10	1.1533786e-29	1.2659558e-29	2.2472925e-26	1.1249122e-26	1.1223803e-26
0.000671       	-2.1495225e-05	-1.0747612e-05	-1.0747612e-05	1.9602071e-05	9.8012907e-06	9.8007801e-06	2.5531307e-10	1.1729900e-29	1.2685609e-29	2.3026276e-26	1.1525824e-26	1.1500453e-26
0.000671004    	-2.2075660e-05	-1.1037830e-05	-1.1037830e-05	1.9524738e-05	9.7627664e-06	9.7619717e-06	3.9734258e-10	1.1690048e-29	1.2915462e-29	2.2661508e-26	1.1343669e-26	1.1317839e-26
0.000671008    	-2.2035378e-05	-1.1017689e-05	-1.1017689e-05	1.9914665e-05	9.9576363e-06	9.9570289e-06	3.0367464e-10	1.1879744e-29	1.2946966e-29	2.3194191e-26	1.1610043e-26	1.1584149e-26
0.000671012    	-2.2636890e-05	-1.1318445e-05	-1.1318445e-05	1.9819320e-05	9.9101139e-06	9.9092057e-06	4.5409460e-10	1.1825508e-29	1.3181796e-29	2.2780781e-26	1.1403572e-26	1.1377209e-26
0.000671017    	-2.2566137e-05	-1.1283069e-05	-1.1283069e-05	2.0219774e-05	1.0110240e-05	1.0109534e-05	3.5255821e-10	1.2014870e-29	1.3196317e-29	2.3328510e-26	1.1677451e-26	1.1651058e-26
0.000671021    	-2.3162118e-05	-1.1581059e-05	-1.1581059e-05	2.0116797e-05	1.0058903e-05	1.0057894e-05	5.0418763e-10	1.1951901e-29	1.3418837e-29	2.2900359e-26	1.1463598e-26	1.1436761e-26
0.000671025    	-2.3057702e-05	-1.1528851e-05	-1.1528851e-05	2.0511020e-05	1.0255905e-05	1.0255116e-05	3.9444164e-10	1.2132246e-29	1.3415843e-29	2.3439463e-26	1.1733147e-26	1.1706315e-26
0.000671029    	-2.3678589e-05	-1.1839295e-05	-1.1839295e-05	2.0337616e-05	1.0169378e-05	1.0168238e-05	5.6995789e-10	1.2034710e-29	1.3641184e-29	2.2903308e-26	1.1465295e-26	1.1438013e-26
0.000671033    	-2.3548673e-05	-1.1774336e-05	-1.1774336e-05	2.0710890e-05	1.0355905e-05	1.0354986e-05	4.5942868e-10	1.2201860e-29	1.3619444e-29	2.3422305e-26	1.1724772e-26	1.1697533e-26
0.000671037    	-2.4141496e-05	-1.2070748e-05	-1.2070748e-05	2.0511484e-05	1.0256377e-05	1.0255108e-05	6.3432157e-10	1.2091891e-29	1.3827982e-29	2.2867437e-26	1.1447547e-26	1.1419891e-26
0.000671041    	-2.4048412e-05	-1.2024206e-05	-1.2024206e-05	2.0805395e-05	1.0403250e-05	1.0402145e-05	5.5253372e-10	1.2223528e-29	1.3809386e-29	2.3275971e-26	1.1651795e-26	1.1624176e-26
0.000671045    	-2.4552183e-05	-1.2276091e-05	-1.2276091e-05	2.0642040e-05	1.0321719e-05	1.0320321e-05	6.9880799e-10	1.2123943e-29	1.3980634e-29	2.2788585e-26	1.1408273e-26	1.1380312e-26
0.000671049    	-2.4390524e-05	-1.2195262e-05	-1.2195262e-05	2.0920352e-05	1.0460781e-05	1.0459571e-05	6.0537134e-10	1.2249013e-29	1.3939143e-29	2.3202205e-26	1.1615042e-26	1.1587163e-26
0.000671053    	-2.4760224e-05	-1.2380112e-05	-1.2380112e-05	2.0794467e-05	1.0397947e-05	1.0396520e-05	7.1364870e-10	1.2171376e-29	1.4065683e-29	2.2827382e-26	1.1427757e-26	1.1399626e-26
0.000671057    	-2.4653652e-05	-1.2326826e-05	-1.2326826e-05	2.0992502e-05	1.0496901e-05	1.0495601e-05	6.4990611e-10	1.2258048e-29	1.4035776e-29	2.3112994e-26	1.1570533e-26	1.1542461e-26
0.000671061    	-2.4920366e-05	-1.2460183e-05	-1.2460183e-05	2.0887915e-05	1.0444690e-05	1.0443225e-05	7.3283256e-10	1.2196567e-29	1.4125178e-29	2.2825381e-26	1.1426816e-26	1.1398565e-26
0.000671065    	-2.4869882e-05	-1.2434941e-05	-1.2434941e-05	2.0998273e-05	1.0499838e-05	1.0498435e-05	7.0118814e-10	1.2240885e-29	1.4111822e-29	2.2964151e-26	1.1496187e-26	1.1467963e-26
0.000671069    	-2.5055909e-05	-1.2527955e-05	-1.2527955e-05	2.0900575e-05	1.0451055e-05	1.0449521e-05	7.6715103e-10	1.2185789e-29	1.4164537e-29	2.2732275e-26	1.1380302e-26	1.1351973e-26
0.000671073    	-2.4926451e-05	-1.2463225e-05	-1.2463225e-05	2.1000851e-05	1.0501145e-05	1.0499706e-05	7.1941273e-10	1.2227524e-29	1.4122220e-29	2.2892659e-26	1.1460451e-26	1.1432207e-26
0.000671076    	-2.5043087e-05	-1.2521543e-05	-1.2521543e-05	2.0908408e-05	1.0454971e-05	1.0453437e-05	7.6708153e-10	1.2174349e-29	1.4149481e-29	2.2694611e-26	1.1361455e-26	1.1333156e-26
0.00067108     	-2.4954993e-05	-1.2477497e-05	-1.2477497e-05	2.0909680e-05	1.0455594e-05	1.0454086e-05	7.5375050e-10	1.2176638e-29	1.4123332e-29	2.2725153e-26	1.1376700e-26	1.1348453e-26
0.000671084    	-2.4996283e-05	-1.2498141e-05	-1.2498141e-05	2.0835113e-05	1.0418337e-05	1.0416776e-05	7.8067682e-10	1.2135582e-29	1.4125144e-29	2.2593879e-26	1.1311064e-26	1.1282814e-26
0.000671088    	-2.4836970e-05	-1.2418485e-05	-1.2418485e-05	2.0874406e-05	1.0437945e-05	1.0436461e-05	7.4193103e-10	1.2157872e-29	1.4069503e-29	2.2716222e-26	1.1372181e-26	1.1344042e-26
0.000671092    	-2.4858294e-05	-1.2429147e-05	-1.2429147e-05	2.0789195e-05	1.0395363e-05	1.0393832e-05	7.6571578e-10	1.2113969e-29	1.4067643e-29	2.2580874e-26	1.1304505e-26	1.1276369e-26
0.000671096    	-2.4730118e-05	-1.2365059e-05	-1.2365059e-05	2.0782291e-05	1.0391891e-05	1.0390400e-05	7.4570647e-10	1.2120544e-29	1.4024425e-29	2.2641405e-26	1.1334727e-26	1.1306678e-26
0.0006711      	-2.4702794e-05	-1.2351397e-05	-1.2351397e-05	2.0728127e-05	1.0364816e-05	1.0363311e-05	7.5268739e-10	1.2094496e-29	1.4008514e-29	2.2572690e-26	1.1300353e-26	1.1272336e-26
0.000671104    	-2.4610336e-05	-1.2305168e-05	-1.2305168e-05	2.0691157e-05	1.0346324e-05	1.0344833e-05	7.4533686e-10	1.2086765e-29	1.3983787e-29	2.2570029e-26	1.1298999e-26	1.1271031e-26
0.000671108    	-2.4575038e-05	-1.2287519e-05	-1.2287519e-05	2.0629523e-05	1.0315517e-05	1.0314007e-05	7.5484867e-10	1.2066380e-29	1.3968003e-29	2.2521495e-26	1.1274716e-26	1.1246780e-26
0.000671112    	-2.4481211e-05	-1.2240606e-05	-1.2240606e-05	2.0615873e-05	1.0308676e-05	1.0307198e-05	7.3899485e-10	1.2066397e-29	1.3940273e-29	2.2548951e-26	1.1288416e-26	1.1260535e-26
0.000671116    	-2.4457143e-05	-1.2228571e-05	-1.2228571e-05	2.0553922e-05	1.0277713e-05	1.0276210e-05	7.5134684e-10	1.2049545e-29	1.3937887e-29	2.2491554e-26	1.1259715e-26	1.1231839e-26
0.00067112     	-2.4344971e-05	-1.2172485e-05	-1.2172485e-05	2.0577315e-05	1.0289381e-05	1.0287934e-05	7.2371077e-10	1.2069641e-29	1.3907571e-29	2.2577357e-26	1.1302586e-26	1.1274771e-26
0.000671124    	-2.4304535e-05	-1.2152267e-05	-1.2152267e-05	2.0545428e-05	1.0273439e-05	1.0271989e-05	7.2476819e-10	1.2067901e-29	1.3899804e-29	2.2577073e-26	1.1302436e-26	1.1274637e-26
0.000671128    	-2.4225701e-05	-1.2112850e-05	-1.2112850e-05	2.0573443e-05	1.0287426e-05	1.0286017e-05	7.0426450e-10	1.2089881e-29	1.3876752e-29	2.2665326e-26	1.1346540e-26	1.1318786e-26
0.000671132    	-2.4183558e-05	-1.2091779e-05	-1.2091779e-05	2.0562851e-05	1.0282123e-05	1.0280728e-05	6.9779099e-10	1.2096798e-29	1.3873436e-29	2.2687943e-26	1.1357845e-26	1.1330098e-26
0.000671136    	-2.4146444e-05	-1.2073222e-05	-1.2073222e-05	2.0578203e-05	1.0289789e-05	1.0288414e-05	6.8767440e-10	1.2112304e-29	1.3866902e-29	2.2738930e-26	1.1383332e-26	1.1355598e-26
0.00067114     	-2.4121356e-05	-1.2060678e-05	-1.2060678e-05	2.0575521e-05	1.0288444e-05	1.0287077e-05	6.8325900e-10	1.2122863e-29	1.3874757e-29	2.2758719e-26	1.1393234e-26	1.1365485e-26
0.000671144    	-2.4105727e-05	-1.2052863e-05	-1.2052863e-05	2.0610997e-05	1.0306171e-05	1.0304826e-05	6.7277339e-10	1.2145333e-29	1.3875819e-29	2.2820324e-26	1.1424038e-26	1.1396286e-26
0.000671148    	-2.4111092e-05	-1.2055546e-05	-1.2055546e-05	2.0600683e-05	1.0301017e-05	1.0299666e-05	6.7576638e-10	1.2150702e-29	1.3899381e-29	2.2808879e-26	1.1418339e-26	1.1390540e-26
0.000671152    	-2.4049390e-05	-1.2024695e-05	-1.2024695e-05	2.0702056e-05	1.0351672e-05	1.0350385e-05	6.4351198e-10	1.2206382e-29	1.3877260e-29	2.2996742e-26	1.1512248e-26	1.1484494e-26
0.000671155    	-2.4026993e-05	-1.2013497e-05	-1.2013497e-05	2.0767204e-05	1.0384227e-05	1.0382978e-05	6.2450602e-10	1.2243627e-29	1.3878596e-29	2.3106040e-26	1.1566899e-26	1.1539142e-26
0.000671159    	-2.4086995e-05	-1.2043497e-05	-1.2043497e-05	2.0790038e-05	1.0395651e-05	1.0394387e-05	6.3215953e-10	1.2254820e-29	1.3905051e-29	2.3109275e-26	1.1568543e-26	1.1540733e-26
0.000671163    	-2.4118858e-05	-1.2059429e-05	-1.2059429e-05	2.0814435e-05	1.0407849e-05	1.0406586e-05	6.3139227e-10	1.2268350e-29	1.3931922e-29	2.3120345e-26	1.1574105e-26	1.1546241e-26
0.000671167    	-2.4136840e-05	-1.2068420e-05	-1.2068420e-05	2.0854356e-05	1.0427808e-05	1.0426548e-05	6.2992117e-10	1.2293729e-29	1.3945614e-29	2.3180277e-26	1.1604084e-26	1.1576193e-26
0.000671171    	-2.4177221e-05	-1.2088610e-05	-1.2088610e-05	2.0892468e-05	1.0446860e-05	1.0445608e-05	6.2590700e-10	1.2308229e-29	1.3972609e-29	2.3194198e-26	1.1611072e-26	1.1583126e-26
0.000671175    	-2.4278274e-05	-1.2139137e-05	-1.2139137e-05	2.0887428e-05	1.0444363e-05	1.0443065e-05	6.4931566e-10	1.2305376e-29	1.4014494e-29	2.3140792e-26	1.1584410e-26	1.1556381e-26
0.000671179    	-2.4305671e-05	-1.2152835e-05	-1.2152835e-05	2.0943975e-05	1.0472625e-05	1.0471349e-05	6.3798279e-10	1.2326122e-29	1.4035578e-29	2.3178652e-26	1.1603362e-26	1.1575290e-26
0.000671183    	-2.4303595e-05	-1.2151797e-05	-1.2151797e-05	2.0998903e-05	1.0500081e-05	1.0498822e-05	6.2982503e-10	1.2358563e-29	1.4039669e-29	2.3270458e-26	1.1649268e-26	1.1621189e-26
0.000671187    	-2.4291649e-05	-1.2145824e-05	-1.2145824e-05	2.1069024e-05	1.0535121e-05	1.0533904e-05	6.0859942e-10	1.2387427e-29	1.4044769e-29	2.3351861e-26	1.1689976e-26	1.1661886e-26
0.000671191    	-2.4332200e-05	-1.2166100e-05	-1.2166100e-05	2.1107583e-05	1.0554403e-05	1.0553180e-05	6.1121151e-10	1.2405798e-29	1.4057744e-29	2.3392804e-26	1.1710460e-26	1.1682344e-26
0.000671195    	-2.4352804e-05	-1.2176402e-05	-1.2176402e-05	2.1166976e-05	1.0584086e-05	1.0582891e-05	5.9767053e-10	1.2424045e-29	1.4069977e-29	2.3434872e-26	1.1731506e-26	1.1703366e-26
0.000671199    	-2.4391474e-05	-1.2195737e-05	-1.2195737e-05	2.1195112e-05	1.0598157e-05	1.0596955e-05	6.0060075e-10	1.2435881e-29	1.4084264e-29	2.3454472e-26	1.1741320e-26	1.1713151e-26
0.000671203    	-2.4399460e-05	-1.2199730e-05	-1.2199730e-05	2.1244078e-05	1.0622626e-05	1.0621453e-05	5.8639659e-10	1.2449565e-29	1.4093436e-29	2.3486373e-26	1.1757280e-26	1.1729093e-26
0.000671207    	-2.4440291e-05	-1.2220146e-05	-1.2220146e-05	2.1262318e-05	1.0631751e-05	1.0630568e-05	5.9154440e-10	1.2455237e-29	1.4101182e-29	2.3502335e-26	1.1765268e-26	1.1737066e-26
0.000671211    	-2.4426934e-05	-1.2213467e-05	-1.2213467e-05	2.1322370e-05	1.0661757e-05	1.0660612e-05	5.7261780e-10	1.2476336e-29	1.4109134e-29	2.3544479e-26	1.1786349e-26	1.1758130e-26
0.000671215    	-2.4448934e-05	-1.2224467e-05	-1.2224467e-05	2.1342771e-05	1.0671960e-05	1.0670811e-05	5.7437841e-10	1.2483958e-29	1.4132618e-29	2.3522050e-26	1.1775158e-26	1.1746892e-26
0.000671219    	-2.4468994e-05	-1.2234497e-05	-1.2234497e-05	2.1363753e-05	1.0682446e-05	1.0681307e-05	5.6956488e-10	1.2485449e-29	1.4144708e-29	2.3509856e-26	1.1769073e-26	1.1740784e-26
0.000671223    	-2.4529061e-05	-1.2264530e-05	-1.2264530e-05	2.1353285e-05	1.0677228e-05	1.0676057e-05	5.8576122e-10	1.2477294e-29	1.4163199e-29	2.3464310e-26	1.1746318e-26	1.1717992e-26
0.000671227    	-2.4553052e-05	-1.2276526e-05	-1.2276526e-05	2.1370940e-05	1.0686053e-05	1.0684887e-05	5.8342132e-10	1.2477617e-29	1.4173319e-29	2.3452728e-26	1.1740537e-26	1.1712191e-26
0.000671231    	-2.4565822e-05	-1.2282911e-05	-1.2282911e-05	2.1375661e-05	1.0688416e-05	1.0687245e-05	5.8574035e-10	1.2478395e-29	1.4181622e-29	2.3444663e-26	1.1736513e-26	1.1708150e-26
0.000671235    	-2.4527391e-05	-1.2263695e-05	-1.2263695e-05	2.1417768e-05	1.0709449e-05	1.0708318e-05	5.6564682e-10	1.2493941e-29	1.4175038e-29	2.3496589e-26	1.1762470e-26	1.1734119e-26
0.000671239    	-2.4553043e-05	-1.2276522e-05	-1.2276522e-05	2.1406120e-05	1.0703634e-05	1.0702487e-05	5.7357403e-10	1.2487316e-29	1.4188673e-29	2.3460366e-26	1.1744372e-26	1.1715995e-26
0.000671243    	-2.4514309e-05	-1.2257155e-05	-1.2257155e-05	2.1446357e-05	1.0723733e-05	1.0722624e-05	5.5433783e-10	1.2503315e-29	1.4180895e-29	2.3514847e-26	1.1771604e-26	1.1743242e-26
0.000671247    	-2.4542685e-05	-1.2271342e-05	-1.2271342e-05	2.1430808e-05	1.0715967e-05	1.0714841e-05	5.6314408e-10	1.2494391e-29	1.4197332e-29	2.3468336e-26	1.1748365e-26	1.1719970e-26
0.000671251    	-2.4503163e-05	-1.2251581e-05	-1.2251581e-05	2.1469476e-05	1.0735282e-05	1.0734194e-05	5.4410612e-10	1.2510158e-29	1.4190768e-29	2.3519853e-26	1.1774117e-26	1.1745736e-26
0.000671255    	-2.4537134e-05	-1.2268567e-05	-1.2268567e-05	2.1448191e-05	1.0724651e-05	1.0723540e-05	5.5552150e-10	1.2499403e-29	1.4209368e-29	2.3466441e-26	1.1747430e-26	1.1719011e-26
0.000671259    	-2.4497454e-05	-1.2248727e-05	-1.2248727e-05	2.1487850e-05	1.0744462e-05	1.0743388e-05	5.3687860e-10	1.2517109e-29	1.4201540e-29	2.3525800e-26	1.1777101e-26	1.1748698e-26
0.000671263    	-2.4542184e-05	-1.2271092e-05	-1.2271092e-05	2.1459902e-05	1.0730503e-05	1.0729400e-05	5.5149387e-10	1.2502540e-29	1.4225278e-29	2.3455769e-26	1.1742110e-26	1.1713659e-26
0.000671267    	-2.4500719e-05	-1.2250359e-05	-1.2250359e-05	2.1505981e-05	1.0753521e-05	1.0752460e-05	5.3067568e-10	1.2522504e-29	1.4216516e-29	2.3523277e-26	1.1775855e-26	1.1747422e-26
0.000671271    	-2.4479296e-05	-1.2239648e-05	-1.2239648e-05	2.1530951e-05	1.0765996e-05	1.0764955e-05	5.2043610e-10	1.2535486e-29	1.4217402e-29	2.3559222e-26	1.1793828e-26	1.1765393e-26
0.000671275    	-2.4380588e-05	-1.2190294e-05	-1.2190294e-05	2.1633380e-05	1.0817166e-05	1.0816215e-05	4.7563107e-10	1.2582794e-29	1.4184320e-29	2.3734492e-26	1.1881430e-26	1.1853062e-26
0.000671279    	-2.4433353e-05	-1.2216676e-05	-1.2216676e-05	2.1599794e-05	1.0800390e-05	1.0799404e-05	4.9329939e-10	1.2565616e-29	1.4213216e-29	2.3651154e-26	1.1839790e-26	1.1811364e-26
0.000671283    	-2.4358541e-05	-1.2179271e-05	-1.2179271e-05	2.1683488e-05	1.0842201e-05	1.0841287e-05	4.5732786e-10	1.2602372e-29	1.4188436e-29	2.3785331e-26	1.1906854e-26	1.1878477e-26
0.000671287    	-2.4426725e-05	-1.2213363e-05	-1.2213363e-05	2.1629826e-05	1.0815396e-05	1.0814430e-05	4.8308210e-10	1.2576565e-29	1.4225718e-29	2.3666527e-26	1.1847489e-26	1.1819038e-26
0.00067129     	-2.4319742e-05	-1.2159871e-05	-1.2159871e-05	2.1747422e-05	1.0874144e-05	1.0873277e-05	4.3344608e-10	1.2628893e-29	1.4185520e-29	2.3861887e-26	1.1945129e-26	1.1916758e-26
0.000671294    	-2.4360031e-05	-1.2180016e-05	-1.2180016e-05	2.1710781e-05	1.0855841e-05	1.0854940e-05	4.5054146e-10	1.2613306e-29	1.4207614e-29	2.3795231e-26	1.1911823e-26	1.1883408e-26
0.000671298    	-2.4284591e-05	-1.2142295e-05	-1.2142295e-05	2.1800030e-05	1.0900428e-05	1.0899602e-05	4.1257402e-10	1.2650009e-29	1.4173049e-29	2.3945267e-26	1.1986806e-26	1.1958460e-26
0.000671302    	-2.4356869e-05	-1.2178435e-05	-1.2178435e-05	2.1737867e-05	1.0869374e-05	1.0868493e-05	4.4052210e-10	1.2619865e-29	1.4211477e-29	2.3812412e-26	1.1920417e-26	1.1891995e-26
0.000671306    	-2.4271976e-05	-1.2135988e-05	-1.2135988e-05	2.1830253e-05	1.0915528e-05	1.0914725e-05	4.0109482e-10	1.2659350e-29	1.4175956e-29	2.3967399e-26	1.1997875e-26	1.1969523e-26
0.00067131     	-2.4300685e-05	-1.2150343e-05	-1.2150343e-05	2.1795715e-05	1.0898269e-05	1.0897445e-05	4.1218312e-10	1.2641152e-29	1.4203035e-29	2.3881408e-26	1.1954907e-26	1.1926501e-26
0.000671314    	-2.4206666e-05	-1.2103333e-05	-1.2103333e-05	2.1892023e-05	1.0946383e-05	1.0945640e-05	3.7158909e-10	1.2684148e-29	1.4160654e-29	2.4054925e-26	1.2041623e-26	1.2013302e-26
0.000671318    	-2.4263943e-05	-1.2131972e-05	-1.2131972e-05	2.1839839e-05	1.0920314e-05	1.0919525e-05	3.9454634e-10	1.2658082e-29	1.4189840e-29	2.3944741e-26	1.1986561e-26	1.1958181e-26
0.000671322    	-2.4216550e-05	-1.2108275e-05	-1.2108275e-05	2.1898449e-05	1.0949596e-05	1.0948852e-05	3.7185513e-10	1.2681875e-29	1.4165562e-29	2.4040027e-26	1.2034179e-26	1.2005848e-26
0.000671326    	-2.4285605e-05	-1.2142802e-05	-1.2142802e-05	2.1837267e-05	1.0919032e-05	1.0918235e-05	3.9853804e-10	1.2650582e-29	1.4199426e-29	2.3908499e-26	1.1968449e-26	1.1940050e-26
0.00067133     	-2.4221125e-05	-1.2110563e-05	-1.2110563e-05	2.1903704e-05	1.0952223e-05	1.0951481e-05	3.7094621e-10	1.2679662e-29	1.4169585e-29	2.4024918e-26	1.2026628e-26	1.1998289e-26
0.000671334    	-2.4264960e-05	-1.2132480e-05	-1.2132480e-05	2.1856643e-05	1.0928711e-05	1.0927932e-05	3.8938011e-10	1.2656231e-29	1.4193753e-29	2.3927364e-26	1.1977876e-26	1.1949488e-26
0.000671338    	-2.4204249e-05	-1.2102125e-05	-1.2102125e-05	2.1917819e-05	1.0959273e-05	1.0958546e-05	3.6311545e-10	1.2681504e-29	1.4166449e-29	2.4029674e-26	1.2029003e-26	1.2000670e-26
0.000671342    	-2.4217860e-05	-1.2108930e-05	-1.2108930e-05	2.1906980e-05	1.0953856e-05	1.0953123e-05	3.6667243e-10	1.2673552e-29	1.4173811e-29	2.3996968e-26	1.2012658e-26	1.1984310e-26
0.000671346    	-2.4154716e-05	-1.2077358e-05	-1.2077358e-05	2.1956852e-05	1.0978769e-05	1.0978083e-05	3.4322525e-10	1.2695488e-29	1.4146184e-29	2.4090688e-26	1.2059490e-26	1.2031198e-26
0.00067135     	-2.4189534e-05	-1.2094767e-05	-1.2094767e-05	2.1917176e-05	1.0958946e-05	1.0958231e-05	3.5759900e-10	1.2674430e-29	1.4163368e-29	2.4008008e-26	1.2018167e-26	1.1989841e-26
0.000671354    	-2.4125143e-05	-1.2062572e-05	-1.2062572e-05	2.1966627e-05	1.0983648e-05	1.0982979e-05	3.3436865e-10	1.2696632e-29	1.4135187e-29	2.4102303e-26	1.2065287e-26	1.2037016e-26
0.000671358    	-2.4156852e-05	-1.2078426e-05	-1.2078426e-05	2.1918722e-05	1.0959710e-05	1.0959011e-05	3.4931823e-10	1.2672029e-29	1.4153847e-29	2.4007130e-26	1.2017719e-26	1.1989411e-26
0.000671362    	-2.4079361e-05	-1.2039681e-05	-1.2039681e-05	2.1974389e-05	1.0987516e-05	1.0986873e-05	3.2148295e-10	1.2697042e-29	1.4121043e-29	2.4115269e-26	1.2071756e-26	1.2043514e-26
0.000671366    	-2.4106121e-05	-1.2053060e-05	-1.2053060e-05	2.1930723e-05	1.0965697e-05	1.0965026e-05	3.3520674e-10	1.2675498e-29	1.4134899e-29	2.4034793e-26	1.2031532e-26	1.2003262e-26
0.00067137     	-2.4052319e-05	-1.2026160e-05	-1.2026160e-05	2.1973429e-05	1.0987030e-05	1.0986399e-05	3.1567723e-10	1.2694182e-29	1.4108956e-29	2.4116269e-26	1.2072243e-26	1.2044025e-26
0.000671374    	-2.4124190e-05	-1.2062095e-05	-1.2062095e-05	2.1884509e-05	1.0942603e-05	1.0941907e-05	3.4810183e-10	1.2650180e-29	1.4146869e-29	2.3940619e-26	1.1984457e-26	1.1956163e-26
0.000671378    	-2.4064874e-05	-1.2032437e-05	-1.2032437e-05	2.1921736e-05	1.0961196e-05	1.0960540e-05	3.2811558e-10	1.2666591e-29	1.4125487e-29	2.4009697e-26	1.2018974e-26	1.1990723e-26
0.000671382    	-2.4118471e-05	-1.2059235e-05	-1.2059235e-05	2.1855635e-05	1.0928168e-05	1.0927467e-05	3.5088794e-10	1.2633474e-29	1.4152606e-29	2.3879839e-26	1.1954072e-26	1.1925767e-26
0.000671386    	-2.4033779e-05	-1.2016890e-05	-1.2016890e-05	2.1921546e-05	1.0961095e-05	1.0960452e-05	3.2147764e-10	1.2666064e-29	1.4117205e-29	2.4013507e-26	1.2020871e-26	1.1992636e-26
0.00067139     	-2.4088660e-05	-1.2044330e-05	-1.2044330e-05	2.1840264e-05	1.0920481e-05	1.0919783e-05	3.4915746e-10	1.2628465e-29	1.4150554e-29	2.3862805e-26	1.1945553e-26	1.1917252e-26
0.000671394    	-2.4003886e-05	-1.2001943e-05	-1.2001943e-05	2.1913386e-05	1.0957010e-05	1.0956375e-05	3.1741701e-10	1.2663906e-29	1.4114616e-29	2.4005103e-26	1.2016666e-26	1.1988437e-26
0.000671398    	-2.4048519e-05	-1.2024259e-05	-1.2024259e-05	2.1868382e-05	1.0934525e-05	1.0933856e-05	3.3440750e-10	1.2641186e-29	1.4134431e-29	2.3915063e-26	1.1971666e-26	1.1943397e-26
0.000671402    	-2.3967672e-05	-1.1983836e-05	-1.1983836e-05	2.1933399e-05	1.0967004e-05	1.0966395e-05	3.0459873e-10	1.2672423e-29	1.4103136e-29	2.4040503e-26	1.2034355e-26	1.2006148e-26
0.000671406    	-2.4021305e-05	-1.2010652e-05	-1.2010652e-05	2.1884147e-05	1.0942398e-05	1.0941749e-05	3.2433926e-10	1.2647603e-29	1.4126475e-29	2.3939680e-26	1.1983966e-26	1.1955713e-26
0.00067141     	-2.3939190e-05	-1.1969595e-05	-1.1969595e-05	2.1951159e-05	1.0975874e-05	1.0975285e-05	2.9431757e-10	1.2680232e-29	1.4094382e-29	2.4070436e-26	1.2049313e-26	1.2021124e-26
0.000671414    	-2.4000079e-05	-1.2000039e-05	-1.2000039e-05	2.1897301e-05	1.0948967e-05	1.0948333e-05	3.1689566e-10	1.2653576e-29	1.4119957e-29	2.3961976e-26	1.1995108e-26	1.1966868e-26
0.000671418    	-2.3921796e-05	-1.1960898e-05	-1.1960898e-05	2.1965198e-05	1.0982886e-05	1.0982312e-05	2.8734118e-10	1.2685494e-29	1.4089084e-29	2.4089654e-26	1.2058916e-26	1.2030738e-26
0.000671422    	-2.3990676e-05	-1.1995338e-05	-1.1995338e-05	2.1909138e-05	1.0954881e-05	1.0954257e-05	3.1184265e-10	1.2656815e-29	1.4117021e-29	2.3972735e-26	1.2000484e-26	1.1972250e-26
0.000671426    	-2.3907828e-05	-1.1953914e-05	-1.1953914e-05	2.1978966e-05	1.0989764e-05	1.0989202e-05	2.8145653e-10	1.2690940e-29	1.4085726e-29	2.4106786e-26	1.2067479e-26	1.2039307e-26
0.00067143     	-2.3974986e-05	-1.1987493e-05	-1.1987493e-05	2.1926265e-05	1.0963438e-05	1.0962827e-05	3.0551806e-10	1.2664340e-29	1.4112108e-29	2.3997598e-26	1.2012911e-26	1.1984687e-26