/*--------------------------------*- C++ -*----------------------------------*\
| =========                 |                                                 |
| \\      /  F ield         | OpenFOAM: The Open Source CFD Toolbox           |
|  \\    /   O peration     | Version:  2406                                  |
|   \\  /    A nd           | Website:  www.openfoam.com                      |
|    \\/     M anipulation  |                                                 |
\*---------------------------------------------------------------------------*/
FoamFile
{
    version     2.0;
    format      ascii;
    arch        "LSB;label=32;scalar=64";
    class       volScalarField;
    location    "1.98";
    object      p;
}
// * * * * * * * * * * * * * * * * * * * * * * * * * * * * * * * * * * * * * //

dimensions      [0 2 -2 0 0 0 0];

internalField   nonuniform List<scalar> 
217010
(
-179.8501
-112.6725
-116.8912
-118.5631
-119.8226
-116.992
-113.7923
-109.2779
-112.99
-114.1253
-113.8223
-112.6696
-112.1666
-111.9442
-112.2072
-113.4569
-115.8183
-118.7048
-122.1461
-129.9308
-147.1394
-161.3267
-152.8611
-139.3221
-140.3355
-155.0062
-155.9711
-147.4995
-151.741
-159.442
-162.6454
-159.0295
-149.0219
-136.1304
-123.5862
-110.529
-97.67833
-86.01533
-76.91782
-68.93349
-62.80984
-61.46865
-59.24923
-54.09314
-48.83002
-44.45424
-42.40255
-42.05706
-44.96114
-45.0927
-73.44218
-60.34957
-64.33577
-65.23937
-66.72204
-68.55535
-70.02483
-70.51596
-70.90024
-72.65011
-76.85096
-85.55314
-95.53329
-89.83793
-76.33596
-71.78877
-74.32409
-78.49122
-81.65988
-87.21745
-98.43616
-115.3249
-123.5927
-110.5196
-93.60161
-94.47145
-101.9626
-116.737
-136.163
-141.2576
-129.4167
-122.554
-125.5241
-130.6018
-135.4473
-140.1366
-145.4269
-151.2295
-157.2429
-163.2527
-168.3079
-171.2033
-171.8375
-170.9644
-170.3774
-170.3296
-170.1946
-169.6336
-168.6055
-167.4844
-166.082
-164.2535
-161.9848
-159.4544
-156.4911
-153.1936
-149.7581
-146.2204
-142.2939
-138.0025
-133.5694
-129.0328
-124.3947
-119.7625
-114.9056
-109.8965
-105.0428
-100.1431
-95.26775
-90.48288
-85.78084
-81.20049
-76.77354
-72.58629
-68.63585
-64.8828
-61.32553
-58.03959
-55.05916
-52.35221
-49.86923
-47.54849
-45.36156
-43.2805
-41.2253
-39.15799
-37.18233
-35.45306
-33.97493
-32.66925
-31.51385
-30.51184
-29.73659
-29.22495
-29.01148
-29.0816
-29.15257
-31.3415
-30.97484
-46.42252
-15.79936
-17.68828
-14.02913
-12.63631
-11.4125
-11.07165
-11.91715
-14.62052
-19.64705
-27.82399
-38.70834
-51.56148
-64.01614
-78.76209
-96.81947
-115.2399
-132.6573
-147.7811
-160.0307
-168.5894
-171.7826
-167.848
-155.4323
-133.5252
-109.3394
-100.8433
-97.81922
-89.35087
-95.74187
-109.5257
-112.7678
-106.3468
-93.77597
-74.05426
-71.20328
-79.81332
-94.64556
-111.8588
-118.8177
-116.1443
-110.7566
-104.8368
-100.8952
-99.99849
-97.02163
-97.03361
-99.70316
-101.9241
-94.86237
-157.6716
-77.58976
-67.06098
-54.6802
-47.42507
-41.22647
-36.11279
-31.70396
-27.71248
-24.24885
-21.10046
-18.24212
-15.62876
-13.16687
-10.84344
-8.669529
-6.656207
-4.771587
-2.961331
-1.231882
0.4193657
1.998024
3.495703
4.91451
6.306994
7.667384
8.995719
10.26684
11.47017
12.63202
13.77582
14.90537
16.01332
17.0687
18.09327
19.10922
20.10521
21.09103
22.06495
23.03978
23.9706
24.92388
25.82994
26.72978
27.61555
28.49694
29.36183
30.21131
31.06253
31.92804
32.79035
33.63354
34.46281
35.29016
36.14076
37.00261
37.85359
38.70707
39.57117
40.44003
41.32207
42.20467
43.08285
44.00183
45.00805
46.03936
47.04066
48.04912
49.14463
50.44623
51.92043
53.60863
54.87063
52.85166
51.35921
50.17772
49.10847
48.0477
46.95951
45.91829
44.98593
44.10422
43.17189
42.21323
41.27812
40.38873
39.51964
38.6472
37.76068
36.87331
36.01057
35.15465
34.28139
33.40567
32.53913
31.65706
30.77913
29.88332
28.95136
28.03219
27.13212
26.22298
25.28551
24.30243
23.35028
22.35771
21.33839
20.31396
19.27988
18.20375
17.10727
16.00603
14.87637
13.68338
12.43212
11.1753
9.920449
8.612875
7.237271
5.813834
4.320626
2.761748
1.151785
-0.5230815
-2.230818
-4.059972
-6.01913
-8.064096
-10.2457
-12.54118
-15.02609
-17.72737
-20.61378
-23.72737
-27.21639
-31.11693
-35.56241
-40.51884
-46.28566
-53.40766
-61.71991
-75.85279
-87.89016
54.86095
53.11475
51.54205
50.3222
49.2403
48.17415
47.07969
46.02685
45.08235
44.195
43.26125
42.29933
41.35808
40.46257
39.58926
38.71392
37.82468
36.93368
36.06735
35.20855
34.3329
33.45458
32.58554
31.70105
30.82128
29.92362
28.98968
28.06809
27.16551
26.25439
25.31555
24.33004
23.37755
22.3823
21.36101
20.33496
19.29938
18.22148
17.12351
16.02065
14.88958
13.69461
12.44137
11.18289
9.926629
8.616906
7.239476
5.814417
4.31886
2.757214
1.144328
-0.5336197
-2.243395
-4.077639
-6.041475
-8.090801
-10.27872
-12.57936
-15.07314
-17.78396
-20.67914
-23.80413
-27.30825
-31.22445
-35.70416
-40.68927
-46.50121
-53.67722
-62.15836
-76.25901
-90.05228
-79.45066
-67.4315
-55.06901
-47.66359
-41.42
-36.26545
-31.83235
-27.80833
-24.33128
-21.17178
-18.30164
-15.68014
-13.21108
-10.88053
-8.699774
-6.680643
-4.792306
-2.9782
-1.244933
0.4096272
1.991202
3.492033
4.912709
6.306912
7.66913
8.999401
10.27262
11.47748
12.64085
13.78628
14.91748
16.02714
17.08413
18.11002
19.12767
20.12521
21.11284
22.08866
23.06594
23.99723
24.95314
25.86065
26.76236
27.65012
28.53329
29.40003
30.25165
31.10549
31.97351
32.83794
33.68298
34.51473
35.34548
36.19955
37.06459
37.91865
38.77587
39.64399
40.51732
41.40338
42.28993
43.17467
44.10378
45.11899
46.15513
47.1611
48.18155
49.3
50.63273
52.16303
53.68378
-17.23969
-17.78925
-14.36767
-12.7942
-11.48783
-11.05797
-11.77804
-14.32425
-19.16686
-27.15296
-37.89801
-50.71086
-63.18982
-77.85141
-95.83516
-114.3047
-131.8466
-147.1258
-159.5447
-168.3024
-171.7555
-168.1244
-156.0531
-134.2934
-109.8159
-101.0026
-98.02016
-89.40603
-95.6737
-109.4934
-112.8351
-106.4826
-94.00083
-74.09543
-71.29132
-79.97142
-94.82182
-112.0777
-118.8992
-116.1382
-110.7004
-104.7463
-100.8279
-99.95182
-97.0176
-97.10175
-99.83023
-101.8008
-96.33348
-146.1637
-70.98192
-60.9931
-64.12817
-65.10338
-66.53043
-68.36652
-69.92418
-70.46459
-70.79276
-72.40845
-76.36347
-84.85575
-95.39592
-90.51003
-77.07814
-71.84812
-74.1273
-78.28107
-81.40568
-86.77464
-97.75046
-114.7579
-123.8352
-111.3784
-93.97959
-94.49536
-101.7312
-116.2221
-135.8211
-141.445
-129.6752
-122.5736
-125.4345
-130.4466
-135.324
-140.0181
-145.3081
-151.112
-157.1332
-163.1665
-168.2616
-171.1861
-171.8408
-170.9717
-170.3859
-170.3379
-170.1899
-169.6239
-168.5938
-167.4852
-166.0922
-164.2625
-161.9805
-159.442
-156.4713
-153.1638
-149.7163
-146.1724
-142.2388
-137.9351
-133.4946
-128.9462
-124.2972
-119.6532
-114.7855
-109.7766
-104.8909
-99.99073
-95.10883
-90.31687
-85.60855
-81.02382
-76.5949
-72.40772
-68.45759
-64.70548
-61.15189
-57.8729
-54.90055
-52.20057
-49.72215
-47.40392
-45.21747
-43.1324
-41.06972
-38.99997
-37.03387
-35.32089
-33.85486
-32.55674
-31.40945
-30.42151
-29.66728
-29.18221
-28.99661
-29.08066
-29.27622
-31.40512
-31.98657
-44.93279
-166.3275
-114.5267
-117.0188
-118.5815
-119.9392
-117.1411
-113.9216
-109.321
-112.9725
-114.1244
-113.8391
-112.6788
-112.1678
-111.9444
-112.2094
-113.4662
-115.831
-118.7071
-122.1361
-129.9867
-147.454
-161.7331
-152.9309
-139.2528
-140.6459
-155.4117
-155.9742
-147.4515
-152.0527
-159.8206
-162.7834
-158.7617
-148.4939
-135.5048
-122.9101
-109.8121
-96.97677
-85.38323
-76.34823
-68.45829
-62.53076
-61.26356
-58.88111
-53.61207
-48.38376
-44.16781
-42.31034
-42.20996
-45.1281
-46.52473
-152.2925
-115.2255
-117.2311
-118.5154
-120.0648
-117.3825
-114.1139
-109.4162
-112.9942
-114.1646
-113.8791
-112.6945
-112.1678
-111.9382
-112.2141
-113.4949
-115.8659
-118.7096
-122.0962
-130.0505
-147.8849
-162.5452
-153.3691
-138.774
-140.7572
-156.0226
-156.1499
-147.8563
-153.1846
-160.8028
-163.1674
-158.9453
-148.4603
-135.2959
-122.6894
-109.533
-96.67735
-85.04974
-76.0549
-68.23735
-62.32903
-61.26241
-58.88526
-53.41379
-48.1716
-44.02587
-42.28952
-42.37186
-45.34117
-46.96951
-69.14
-61.25371
-64.02035
-65.06132
-66.45662
-68.29893
-69.89235
-70.43523
-70.71072
-72.23172
-76.05881
-84.54801
-95.73744
-91.38977
-77.70411
-71.90537
-74.00439
-78.16808
-81.28396
-86.47122
-97.33111
-114.7384
-124.7284
-112.6556
-93.84213
-94.46914
-101.5802
-115.8682
-135.9203
-141.9096
-129.8584
-122.3706
-125.3316
-130.3656
-135.2966
-140.0362
-145.3121
-151.0876
-157.0969
-163.1375
-168.2633
-171.1966
-171.8675
-170.9901
-170.3982
-170.35
-170.204
-169.6876
-168.6832
-167.5604
-166.1381
-164.2919
-161.9914
-159.4544
-156.4847
-153.1768
-149.7224
-146.1874
-142.2535
-137.9376
-133.4933
-128.9516
-124.29
-119.6354
-114.7557
-109.7389
-104.8726
-99.9493
-95.06066
-90.26549
-85.55189
-80.96406
-76.53173
-72.34376
-68.39347
-64.64075
-61.08565
-57.80684
-54.83727
-52.13967
-49.66324
-47.34609
-45.15933
-43.07599
-41.01416
-38.94122
-36.97395
-35.26481
-33.80429
-32.51127
-31.37006
-30.38797
-29.64429
-29.17401
-29.00444
-29.10041
-29.35118
-31.52648
-32.47717
-42.81909
-17.59464
-17.91559
-14.50997
-12.91392
-11.57731
-11.08134
-11.71588
-14.16105
-18.88262
-26.7703
-37.47042
-50.34834
-62.75798
-77.41431
-95.44228
-113.9656
-131.663
-147.0507
-159.594
-168.5156
-172.1145
-168.5999
-157.0632
-135.9562
-111.0707
-101.3826
-98.34977
-89.55528
-95.63056
-109.5661
-113.0232
-106.91
-94.56528
-74.24236
-71.51774
-80.3023
-95.10896
-112.2917
-119.0287
-116.154
-110.6838
-104.7202
-100.7987
-99.94939
-97.0359
-97.21808
-99.92012
-101.6922
-96.87973
-133.9615
-79.22169
-67.66923
-55.24718
-47.7853
-41.51243
-36.33602
-31.88571
-27.86518
-24.36424
-21.20234
-18.32637
-15.70208
-13.2312
-10.89716
-8.713367
-6.690818
-4.802791
-2.986952
-1.252052
0.4040951
1.986473
3.489717
4.910044
6.305192
7.668625
9.000227
10.27536
11.48021
12.64347
13.78927
14.92106
16.03246
17.09013
18.11484
19.1334
20.13108
21.12044
22.09679
23.07255
24.00727
24.95967
25.86869
26.77148
27.65904
28.54295
29.41013
30.26145
31.11475
31.98437
32.85067
33.69552
34.52715
35.35666
36.21186
37.07968
37.93404
38.79066
39.66075
40.53387
41.42047
42.30807
43.1934
44.12226
45.14408
46.18494
47.18881
48.2114
49.33277
50.68752
52.25359
53.68679
54.7992
53.22081
51.60372
50.35716
49.27278
48.20885
47.10871
46.0487
45.10376
44.21989
43.28396
42.3199
41.37519
40.4789
39.60523
38.73034
37.83949
36.94627
36.08045
35.22192
34.34479
33.46613
32.59762
31.71117
30.83333
29.93518
28.99786
28.07618
27.17411
26.26311
25.32136
24.33884
23.3843
22.39178
21.36808
20.34152
19.30595
18.2259
17.1277
16.02553
14.89507
13.69823
12.44281
11.18414
9.928928
8.617695
7.239509
5.81409
4.316256
2.753045
1.1386
-0.5407283
-2.249056
-4.086942
-6.052977
-8.102624
-10.29482
-12.59519
-15.09474
-17.8095
-20.70711
-23.8363
-27.34709
-31.28899
-35.76353
-40.76912
-46.60446
-53.81946
-62.36273
-76.52492
-89.80058
54.68953
53.38212
51.78772
50.50585
49.40958
48.34423
47.23825
46.17027
45.21612
44.32504
43.38471
42.41807
41.46863
40.56663
39.68818
38.80915
37.91513
37.0179
36.14934
35.28658
34.40581
33.52469
32.65356
31.76345
30.88473
29.98367
29.04197
28.12003
27.21537
26.30237
25.35752
24.37988
23.41301
22.42312
21.39527
20.3676
19.33106
18.24697
17.14788
16.04482
14.9136
13.71261
12.45382
11.19437
9.9396
8.624636
7.244679
5.818188
4.316194
2.750584
1.133473
-0.5492435
-2.255979
-4.102061
-6.073026
-8.124418
-10.32582
-12.62725
-15.13891
-17.86311
-20.76737
-23.90635
-27.43924
-31.39148
-35.8857
-40.92579
-46.80442
-54.06274
-62.7462
-76.75944
-89.98153
-79.35295
-67.87695
-55.58246
-47.99559
-41.69447
-36.47599
-31.99676
-27.95713
-24.44486
-21.26979
-18.38091
-15.75019
-13.27314
-10.93111
-8.740616
-6.710444
-4.821185
-3.000859
-1.262114
0.3975659
1.981923
3.489983
4.909618
6.306676
7.672532
9.006531
10.28568
11.4916
12.65565
13.80232
14.93561
16.05047
17.11097
18.13494
19.156
20.15485
21.14801
22.12662
23.10002
24.04636
24.99519
25.90617
26.81148
27.70158
28.58713
29.45745
30.31128
31.16741
32.03948
32.90896
33.75633
34.5915
35.42479
36.28259
37.15513
38.01323
38.87442
39.74875
40.62709
41.51756
42.41055
43.30389
44.24054
45.2682
46.31456
47.32317
48.3568
49.49381
50.86706
52.41119
53.66813
-18.3978
-18.09648
-14.8462
-13.10462
-11.7001
-11.11692
-11.62871
-13.92831
-18.47115
-26.1841
-36.75048
-49.58621
-61.97129
-76.63638
-94.61648
-113.1093
-130.9532
-146.4534
-159.1528
-168.254
-172.0488
-169.0578
-158.218
-138.2604
-113.6197
-102.2116
-98.76379
-89.58384
-95.38196
-109.4371
-113.2209
-107.6865
-95.49928
-74.56737
-71.94158
-80.91115
-95.63667
-112.8421
-119.3138
-116.232
-110.7002
-104.713
-100.7805
-99.81459
-97.00084
-97.38157
-100.1188
-101.5272
-98.27034
-125.3301
-67.88723
-61.63295
-63.83932
-64.92405
-66.27418
-68.10724
-69.76943
-70.38452
-70.60647
-72.00853
-75.67625
-84.00329
-95.94512
-92.3717
-78.61553
-72.09421
-73.79221
-77.98331
-81.07226
-86.09201
-96.78556
-114.5273
-125.8123
-114.1996
-93.68066
-94.14597
-101.1836
-115.277
-135.6605
-142.2958
-130.3027
-122.5806
-125.3712
-130.3295
-135.2808
-140.0578
-145.2912
-151.0186
-157.0113
-163.0754
-168.2745
-171.2211
-171.9231
-171.0433
-170.4655
-170.426
-170.2587
-169.8182
-168.8487
-167.6801
-166.1911
-164.2933
-161.9753
-159.4382
-156.4653
-153.1438
-149.6668
-146.1315
-142.1984
-137.8654
-133.4076
-128.8691
-124.1923
-119.5299
-114.6421
-109.6105
-104.7143
-99.80014
-94.90165
-90.09983
-85.37958
-80.79033
-76.35482
-72.16598
-68.21783
-64.47016
-60.91956
-57.64614
-54.68522
-51.99517
-49.52262
-47.20655
-45.01646
-42.92717
-40.85896
-38.78701
-36.83397
-35.14282
-33.69218
-32.40318
-31.26741
-30.29721
-29.5748
-29.13197
-28.98707
-29.09752
-29.45078
-31.67655
-33.24877
-40.47507
-142.8364
-117.0146
-117.2256
-118.171
-120.1786
-117.7901
-114.4426
-109.5921
-113.0439
-114.2156
-113.9375
-112.7202
-112.1686
-111.9193
-112.215
-113.54
-115.9251
-118.7047
-122.0207
-130.1299
-148.5025
-163.7756
-153.9729
-137.6079
-140.5698
-156.8681
-156.631
-149.2401
-155.1457
-161.9415
-163.3786
-158.6766
-148.0319
-134.6774
-122.06
-108.8646
-96.04322
-84.42556
-75.49316
-67.82823
-62.00134
-60.95245
-58.53205
-52.99768
-47.81546
-43.83719
-42.29118
-42.61972
-45.65167
-48.30771
-136.2556
-118.7332
-116.9608
-117.4144
-120.2391
-118.3989
-114.9661
-109.9279
-113.1345
-114.3123
-114.0185
-112.7584
-112.1736
-111.8803
-112.2101
-113.5989
-116.0146
-118.69
-121.9083
-130.2472
-149.323
-165.3164
-154.401
-136.0235
-140.0332
-157.199
-157.3493
-151.7583
-157.6929
-163.2893
-163.9921
-158.8787
-147.8609
-134.1766
-121.5754
-108.2975
-95.51969
-83.82995
-74.92121
-67.40998
-61.64115
-60.96565
-58.37028
-52.61565
-47.45844
-43.68682
-42.38275
-42.972
-46.12954
-49.2521
-66.49493
-61.93705
-63.6235
-64.7645
-66.09746
-67.91025
-69.63822
-70.3212
-70.52452
-71.83064
-75.34863
-83.49429
-96.29848
-93.60027
-80.03267
-72.60873
-73.607
-77.77911
-80.86752
-85.72796
-96.23251
-114.3025
-126.979
-115.9048
-93.5804
-93.51792
-100.6712
-114.5889
-134.9115
-142.2113
-131.1786
-123.4687
-125.7289
-130.3549
-135.2665
-140.0926
-145.2892
-150.9688
-156.94
-163.0153
-168.3137
-171.2533
-172.029
-171.195
-170.6823
-170.6679
-170.4168
-170.0129
-169.0375
-167.8177
-166.2901
-164.3723
-162.0166
-159.4871
-156.5146
-153.1811
-149.6777
-146.1544
-142.2244
-137.8659
-133.3914
-128.8571
-124.1442
-119.4744
-114.5851
-109.5329
-104.6288
-99.69978
-94.78527
-89.97812
-85.25106
-80.65646
-76.2106
-72.02013
-68.07576
-64.32989
-60.77681
-57.5051
-54.5538
-51.86774
-49.39757
-47.08246
-44.88996
-42.7983
-40.72756
-38.65359
-36.70745
-35.02953
-33.58783
-32.30292
-31.17554
-30.21769
-29.51801
-29.10387
-28.98438
-29.11798
-29.57193
-31.94024
-33.86979
-38.07923
-19.31888
-18.35765
-15.20321
-13.36527
-11.87981
-11.20237
-11.57342
-13.71512
-18.05277
-25.5649
-36.0184
-48.90218
-61.19073
-75.87027
-93.8931
-112.3895
-130.4766
-146.1477
-159.0705
-168.4689
-172.7862
-169.9504
-159.7822
-141.1648
-117.4714
-104.0134
-99.00385
-89.14196
-94.66531
-108.7982
-113.2412
-108.6893
-96.90314
-75.14931
-72.72561
-81.99748
-96.61734
-113.8264
-119.8032
-116.3872
-110.7455
-104.6761
-100.7255
-99.56436
-96.84833
-97.57176
-100.3719
-101.4257
-99.7937
-119.2502
-79.38297
-67.96314
-55.86742
-48.18266
-41.86306
-36.60525
-32.10297
-28.05034
-24.50968
-21.33081
-18.43005
-15.795
-13.31471
-10.96566
-8.767973
-6.728051
-4.841246
-3.017769
-1.275801
0.3875573
1.973553
3.48829
4.904834
6.303463
7.671031
9.006868
10.2914
11.49704
12.6597
13.80708
14.9421
16.06129
17.1236
18.14419
19.1682
20.16714
21.16387
22.14211
23.11138
24.06148
25.012
25.92395
26.83097
27.7208
28.60765
29.47972
30.33361
31.18878
32.06338
32.93666
33.78398
34.61983
35.45228
36.31272
37.19125
38.04973
38.91031
39.78975
40.66974
41.56239
42.45838
43.35566
44.29563
45.33882
46.39543
47.39916
48.44034
49.59575
50.999
52.51932
53.6059
54.51479
53.48744
51.93167
50.60975
49.49568
48.4351
47.31911
46.23468
45.27452
44.38784
43.44257
42.47178
41.51358
40.60852
39.72838
38.8494
37.95177
37.04933
36.18174
35.3189
34.4348
33.55248
32.68206
31.78677
30.9122
30.0096
29.06076
28.13888
27.23362
26.32117
25.37373
24.39081
23.42671
22.44063
21.40795
20.38005
19.34372
18.25523
17.15708
16.05549
14.92494
13.71849
12.45533
11.19734
9.945355
8.625466
7.244557
5.818517
4.310991
2.742906
1.123362
-0.5622845
-2.262776
-4.120644
-6.096917
-8.148059
-10.35958
-12.65646
-15.18336
-17.91624
-20.82274
-23.96688
-27.5187
-31.49768
-36.00215
-41.07193
-46.99018
-54.28912
-63.07673
-76.86227
-89.97487
54.25758
53.5347
52.09454
50.76298
49.62837
48.57418
47.45348
46.36214
45.39972
44.51333
43.5593
42.58877
41.62324
40.71224
39.82647
38.9466
38.04459
37.13334
36.26395
35.39714
34.50743
33.62296
32.75212
31.84855
30.97827
30.07334
29.11446
28.19437
27.28635
26.372
25.41768
24.44926
23.47042
22.48376
21.44527
20.41744
19.37819
18.27886
17.17978
16.08044
14.95458
13.73978
12.46538
11.20771
9.963378
8.63545
7.251853
5.828576
4.313131
2.740045
1.113467
-0.5781338
-2.262929
-4.136223
-6.118564
-8.172744
-10.40075
-12.68528
-15.23599
-17.98194
-20.8945
-24.03832
-27.61451
-31.62607
-36.1418
-41.2433
-47.2069
-54.53464
-63.40443
-76.845
-89.9417
-79.43407
-67.9417
-56.14528
-48.37422
-42.06602
-36.76325
-32.23225
-28.1603
-24.59023
-21.41188
-18.49096
-15.8488
-13.36753
-11.0061
-8.795378
-6.743324
-4.86671
-3.038471
-1.290137
0.3808198
1.969369
3.492805
4.903463
6.305129
7.674714
9.016362
10.31038
11.51264
12.6748
13.82719
14.96419
16.08637
17.1518
18.16848
19.19804
20.19646
21.19832
22.17713
23.15011
24.11894
25.05946
25.9711
26.88193
27.7745
28.6652
29.5409
30.3946
31.25222
32.13399
33.01493
33.86187
34.70054
35.53451
36.39817
37.28602
38.1468
39.01211
39.89936
40.78085
41.67564
42.57827
43.48432
44.42537
45.47572
46.53917
47.53581
48.58927
49.75606
51.14589
52.58724
53.49173
-20.2459
-18.7676
-15.64914
-13.70703
-12.1262
-11.35489
-11.55374
-13.52029
-17.60427
-24.85907
-35.14351
-48.17126
-60.34348
-75.05772
-93.09696
-111.563
-129.9098
-145.7361
-158.9688
-168.6909
-173.2559
-170.9234
-161.7202
-144.5551
-122.3518
-107.1621
-99.09104
-88.14327
-93.47135
-107.8128
-113.1345
-109.8317
-98.86827
-75.9618
-74.20689
-83.94781
-98.33583
-115.5977
-120.6148
-116.6845
-110.8574
-104.5847
-100.614
-99.18107
-96.52129
-97.84066
-100.6255
-101.2804
-100.7704
-113.4127
-64.8581
-62.17744
-63.39514
-64.56099
-65.87557
-67.62326
-69.37356
-70.18658
-70.42652
-71.72709
-75.09913
-83.16717
-96.56347
-95.04086
-81.9335
-73.61612
-73.50527
-77.55302
-80.66606
-85.37013
-95.57611
-113.8529
-128.019
-117.7118
-94.28717
-93.07782
-100.4636
-113.7877
-132.7763
-140.631
-131.8365
-124.8688
-126.2756
-130.4182
-135.2727
-140.1649
-145.3295
-150.9464
-156.8694
-162.9167
-168.3534
-171.2186
-172.1555
-171.4795
-171.0945
-171.084
-170.6294
-170.2422
-169.2518
-167.9771
-166.3634
-164.4329
-162.0175
-159.4971
-156.5231
-153.1841
-149.6475
-146.1418
-142.2125
-137.8204
-133.3192
-128.795
-124.0485
-119.3934
-114.4964
-109.393
-104.4847
-99.55225
-94.6147
-89.81692
-85.07362
-80.46371
-76.01074
-71.83121
-67.89255
-64.14422
-60.59025
-57.32948
-54.38891
-51.70584
-49.2433
-46.93247
-44.72978
-42.62722
-40.5577
-38.48715
-36.55346
-34.8978
-33.46728
-32.18156
-31.06415
-30.11991
-29.44733
-29.06709
-28.9731
-29.12886
-29.71333
-32.30454
-34.40298
-35.85424
-129.5225
-119.3641
-116.361
-116.5216
-120.2879
-119.2707
-115.8442
-110.5485
-113.3176
-114.4165
-114.109
-112.8086
-112.1862
-111.8417
-112.1927
-113.6761
-116.124
-118.6558
-121.7742
-130.4669
-150.495
-167.136
-154.6376
-134.7284
-139.037
-156.814
-158.2488
-154.908
-160.5062
-164.6543
-164.4119
-158.9534
-147.628
-133.5039
-120.9701
-107.6396
-94.9472
-83.10832
-74.22645
-66.92925
-61.20227
-60.62782
-58.04902
-52.14702
-47.08838
-43.60361
-42.62093
-43.46164
-46.74727
-50.36126
-122.1374
-118.556
-115.5451
-115.4835
-120.2054
-120.1986
-117.2125
-111.4581
-113.6281
-114.514
-114.1731
-112.8662
-112.2066
-111.8102
-112.177
-113.781
-116.1881
-118.5603
-121.6843
-130.774
-152.2049
-169.0462
-154.779
-134.8477
-138.846
-156.5463
-159.5856
-158.2152
-163.4348
-166.2272
-165.2387
-159.1861
-147.5204
-132.6626
-120.1808
-106.8623
-93.95521
-82.08145
-73.49305
-66.48465
-60.80365
-60.65698
-57.62922
-51.53677
-46.76281
-43.69978
-43.14541
-44.1114
-47.5739
-51.56536
-63.45692
-62.37081
-63.27905
-64.33977
-65.62207
-67.27318
-69.02047
-69.98266
-70.43235
-71.67339
-74.8534
-83.29113
-96.97033
-96.73795
-84.2644
-75.15996
-73.6612
-77.33655
-80.44831
-84.97557
-94.66736
-112.9648
-128.7251
-119.5657
-96.47473
-93.70511
-101.0045
-113.0567
-129.5399
-137.3082
-131.6392
-126.3136
-126.8965
-130.5984
-135.3641
-140.3587
-145.5408
-151.0385
-156.8677
-162.7938
-168.3725
-170.9771
-172.2102
-171.8542
-171.6544
-171.6561
-170.8664
-170.5352
-169.5454
-168.2836
-166.5019
-164.5771
-162.0682
-159.5827
-156.6215
-153.2982
-149.6783
-146.1666
-142.2475
-137.8439
-133.2746
-128.7805
-124.0427
-119.3711
-114.4165
-109.2577
-104.3779
-99.40033
-94.46829
-89.67472
-84.86042
-80.2528
-75.81844
-71.6434
-67.67489
-63.92991
-60.39258
-57.14772
-54.18638
-51.52846
-49.07274
-46.76637
-44.53251
-42.42789
-40.36736
-38.28693
-36.36803
-34.73876
-33.30882
-32.02705
-30.9271
-29.99776
-29.35797
-29.01777
-28.95803
-29.15784
-29.92258
-32.84008
-34.758
-34.1921
-21.22408
-19.29697
-16.20084
-14.1759
-12.5009
-11.656
-11.62769
-13.3931
-17.1244
-24.05938
-34.05304
-47.06177
-59.43492
-74.39726
-92.00776
-110.5258
-129.3517
-145.2758
-159.0399
-169.2724
-174.3952
-172.5686
-164.4489
-148.6078
-128.1059
-111.7292
-100.014
-87.33056
-92.11715
-107.0024
-113.4264
-111.1478
-101.3033
-77.19448
-76.58153
-87.18116
-100.8052
-118.5
-121.8716
-117.2476
-111.1421
-104.4278
-100.4408
-98.66021
-95.96864
-98.40873
-101.2906
-101.0389
-100.7901
-107.3096
-79.32308
-67.73107
-56.36799
-48.53861
-42.30253
-36.92455
-32.34857
-28.26893
-24.68843
-21.50595
-18.54112
-15.90656
-13.43172
-11.04303
-8.822422
-6.77162
-4.909758
-3.05936
-1.301326
0.3806758
1.963322
3.490431
4.898305
6.301017
7.672745
9.029787
10.32063
11.51601
12.68661
13.83965
14.96481
16.08967
17.17301
18.1814
19.21671
20.2122
21.22253
22.2048
23.18009
24.13395
25.07868
25.99449
26.91393
27.80785
28.6975
29.57132
30.43054
31.29377
32.17465
33.05299
33.89816
34.7453
35.58041
36.44667
37.34289
38.2086
39.07382
39.96125
40.84557
41.75162
42.66227
43.57845
44.5135
45.57907
46.6684
47.66441
48.74321
49.90997
51.26133
52.60143
53.30886
53.90119
53.48151
52.23377
50.93084
49.77151
48.71342
47.56854
46.46103
45.49649
44.61561
43.63665
42.66427
41.69297
40.78641
39.89019
39.00681
38.10399
37.1904
36.32634
35.45275
34.55481
33.66984
32.79913
31.88391
31.02249
30.10638
29.13798
28.22287
27.31676
26.40777
25.44154
24.44885
23.4891
22.49892
21.45526
20.44129
19.40839
18.29692
17.19505
16.08838
14.9705
13.75843
12.4739
11.20342
9.970785
8.640649
7.248295
5.828421
4.312077
2.739673
1.103212
-0.6127419
-2.276588
-4.168227
-6.137929
-8.196649
-10.45824
-12.71232
-15.29622
-18.04026
-20.97683
-24.12156
-27.71476
-31.75282
-36.28023
-41.41683
-47.4302
-54.76968
-63.67117
-76.59755
-89.541
53.4745
53.29634
52.31058
51.11994
49.99067
48.96858
47.77438
46.62516
45.68058
44.84253
43.85714
42.84568
41.82603
40.93039
40.0561
39.15203
38.21039
37.27699
36.44173
35.56714
34.64967
33.77183
32.90852
31.95823
31.16463
30.20495
29.20514
28.30566
27.3683
26.48955
25.51043
24.55302
23.60373
22.57351
21.4724
20.46396
19.44152
18.33402
17.2582
16.13928
14.97461
13.76426
12.52417
11.24006
9.97547
8.666919
7.273164
5.808301
4.295123
2.742651
1.14248
-0.5972336
-2.282334
-4.247707
-6.175249
-8.196453
-10.54828
-12.74764
-15.42283
-18.08899
-21.04121
-24.29608
-27.90711
-31.96013
-36.49528
-41.6778
-47.7784
-55.14256
-64.07588
-76.23216
-89.16245
-78.95647
-67.49811
-56.76044
-48.83045
-42.69671
-37.07131
-32.51554
-28.47435
-24.8776
-21.58947
-18.57718
-16.01533
-13.51407
-11.07465
-8.892117
-6.841255
-4.922015
-3.037472
-1.308463
0.3745952
1.922426
3.466286
4.919247
6.278411
7.686708
9.052838
10.29508
11.54677
12.7281
13.84633
14.96061
16.14742
17.26784
18.2125
19.26423
20.25454
21.28377
22.26247
23.22944
24.17773
25.15336
26.08553
26.99659
27.88594
28.76174
29.66332
30.54269
31.37936
32.2404
33.16004
34.03849
34.87351
35.70585
36.55572
37.48218
38.37096
39.18966
40.11693
41.03412
41.92274
42.82942
43.75197
44.67508
45.78675
46.93485
47.8751
48.93107
50.03979
51.33139
52.55757
53.0437
-22.36201
-20.00424
-16.90272
-14.88763
-13.10291
-12.14932
-11.83862
-13.4073
-16.68132
-23.25959
-32.82939
-44.96941
-58.17595
-73.76934
-90.56314
-109.0782
-128.7997
-144.2763
-158.5621
-169.7163
-175.6735
-174.4274
-167.8966
-153.4587
-135.0981
-118.0642
-103.3303
-87.52254
-92.13522
-107.1456
-114.5428
-112.3807
-104.1261
-80.57091
-79.61642
-91.19255
-104.0112
-122.3798
-123.5726
-118.1336
-111.5444
-104.1148
-100.244
-97.99216
-95.15574
-99.04709
-101.5225
-100.4807
-99.69081
-101.4546
-62.39788
-61.98623
-62.82539
-63.94675
-65.22226
-66.77247
-68.48457
-69.64773
-70.26269
-71.45905
-74.63141
-83.38072
-96.76797
-98.38763
-87.15538
-77.31737
-74.08089
-77.11077
-80.16295
-84.47974
-93.4183
-111.3029
-128.6119
-121.3115
-100.0634
-95.64062
-101.8217
-112.3272
-126.2919
-134.0455
-131.0283
-127.7801
-127.5636
-130.8729
-135.5212
-140.6595
-146.1269
-151.1931
-157.084
-162.7637
-168.3915
-170.519
-172.1998
-172.2679
-172.2888
-172.352
-171.0036
-170.8447
-169.873
-168.5759
-166.5899
-164.7951
-162.1338
-159.754
-156.7723
-153.4638
-149.5588
-146.1113
-142.313
-137.996
-133.1509
-128.8649
-124.0975
-119.1248
-114.1373
-109.1263
-104.1532
-99.13737
-94.30981
-89.36086
-84.45375
-80.00159
-75.61981
-71.31957
-67.29909
-63.62837
-60.18789
-56.87285
-53.87612
-51.3159
-48.85181
-46.50503
-44.18254
-42.15357
-40.09719
-37.97023
-36.12896
-34.51705
-33.04265
-31.80088
-30.72709
-29.81332
-29.22567
-28.93588
-28.9194
-29.19742
-30.25139
-33.40544
-34.52076
-33.01319
-115.2
-115.8691
-114.8825
-115.6792
-120.7953
-122.14
-118.7408
-112.0752
-113.6378
-114.6178
-114.2302
-112.9245
-112.2424
-111.8355
-112.3019
-113.9278
-116.181
-118.4426
-121.6524
-131.253
-153.7968
-171.3163
-155.0353
-137.4995
-140.9669
-157.5098
-161.6264
-161.5231
-166.3283
-167.8553
-165.8956
-159.5389
-147.5833
-131.3451
-119.2819
-105.8896
-92.39193
-80.63908
-72.85889
-65.96283
-60.28324
-60.19231
-57.12389
-50.83595
-46.53188
-43.96792
-44.07787
-44.94356
-48.67136
-52.94442
-0.180701
-0.04130332
-0.1798909
5.738314
-97.02538
-1.306705
0.9656382
5.862988
4.134067
2.395946
-11.42241
-173.0608
-0.06366611
8.263561
1.320939
6.688713
9.483565
3.220236
6.23482
-19.21942
-10.70261
6.285048
1.444071
6.002614
-0.5157455
6.293912
5.978109
3.297396
5.069845
-0.9655254
4.718333
0.1536141
-14.31318
-0.02427425
6.911474
3.511336
1.886013
7.878861
1.031504
6.628791
8.098129
-0.04972712
-7.137247
-96.32793
-1.330151
-19.87118
0.2120341
-0.05406197
-0.09417123
8.464229
4.399037
-0.9468828
2.445643
-3.610798
6.669067
2.317756
3.806862
4.301975
2.43015
-0.04031027
1.084091
6.157856
-1.262525
-36.63597
8.754167
-2.369833
-0.9894427
-9.341755
10.75861
-2.396748
-37.23934
1.143413
7.213523
4.46734
5.606304
5.980092
5.054484
5.043986
-0.1930067
6.392158
-2.003919
5.185413
-31.68894
-1.200283
-2.538676
-1.320127
9.806705
1.472009
-1.253734
1.70242
8.015776
8.493259
6.626427
3.288969
-11.66754
3.828413
6.859276
6.352682
-92.77505
-87.84316
-3.152679
-30.23001
9.593433
-6.3465
2.963566
5.645199
-21.177
6.757674
-13.81004
5.980526
2.175977
-247.4942
1.186367
-1.43281
-3.134111
0.6048964
-1.198156
-18.41923
-8.112321
2.524147
0.5834868
-6.193401
-1.098321
0.2844592
4.96028
-13.36137
-0.07007619
2.118135
2.153572
2.816609
12.89683
8.83437
5.676548
-13.38081
1.12804
0.9945135
3.863628
-64.87483
3.89156
7.867295
5.738963
8.670236
6.107082
3.193824
0.0710899
9.311406
6.901214
-0.6309659
-0.529034
-6.587352
-22.72908
-1.600869
-0.8684071
5.529165
10.74363
5.324387
-0.9810833
-9.799749
0.3461539
3.880386
-13.53741
5.729164
3.543508
0.8086765
8.652806
1.030078
-5.296677
7.646064
-0.9015763
4.985752
1.804752
-9.630819
1.16221
5.725748
-0.5402488
0.2202937
-0.1201698
-1.842868
-1.376037
-27.42578
-4.755092
6.538869
3.7767
1.133755
1.417784
1.871737
6.994558
6.663802
8.753997
-0.5194633
3.79231
2.009571
5.406738
1.871953
-18.45139
0.7472638
-2.183114
-56.93686
7.958204
0.950448
-6.217398
2.167043
1.642301
10.62963
0.5695386
0.4466472
1.097481
-0.6338086
2.746665
2.209722
0.8661658
4.37231
1.160493
6.580012
-0.1260449
1.661359
5.010817
-1.390069
3.862928
-6.068049
1.850685
4.029723
5.068676
2.258721
20.80588
2.199582
5.499641
2.5864
3.65513
4.125144
-3.907605
3.760467
4.608801
6.654929
10.37759
-2.746209
4.565178
6.06232
-137.8023
0.02761541
2.899788
-6.465544
-0.3702563
-0.2315674
1.094048
-1.150605
-5.828141
3.966044
4.76708
6.035723
6.029475
-205.529
9.163736
2.956762
0.3456172
6.678547
-5.077005
3.857174
-2.201746
3.018555
5.21539
-8.043539
2.215299
-171.0163
7.075521
4.514749
1.696806
-150.2435
5.255343
-5.615983
-9.765406
1.536751
-1.254205
0.1029401
8.652958
-38.12867
6.599794
1.270388
2.77994
2.462976
2.517249
-0.6895735
-5.694183
-1.483262
8.907811
-2.85535
4.75264
7.185185
7.613589
4.533735
-4.609216
1.464689
-92.60007
6.427751
7.874819
-78.57468
0.1379756
-30.75454
6.097978
5.470377
0.6232506
-33.71539