/*--------------------------------*- C++ -*----------------------------------*\
| =========                 |                                                 |
| \\      /  F ield         | OpenFOAM: The Open Source CFD Toolbox           |
|  \\    /   O peration     | Version:  2406                                  |
|   \\  /    A nd           | Website:  www.openfoam.com                      |
|    \\/     M anipulation  |                                                 |
\*---------------------------------------------------------------------------*/
FoamFile
{
    version     2.0;
    format      ascii;
    arch        "LSB;label=32;scalar=64";
    class       surfaceScalarField;
    location    "1.02";
    object      phi;
}
// * * * * * * * * * * * * * * * * * * * * * * * * * * * * * * * * * * * * * //

dimensions      [0 3 -1 0 0 0 0];

oriented        oriented;

internalField   nonuniform List<scalar> 
23794
(
0.005445816
-0.004463742
-0.0009820742
0.006190546
-0.00074473
0.006640629
-0.0004500832
0.00671463
-7.400124e-05
0.006066502
0.0006481284
0.004121354
0.001945148
0.00119641
0.002924945
-0.0009732146
0.002169624
-0.001538347
0.0005651321
-0.000894375
-0.0006439717
0.0002493902
-0.001143765
0.001288058
-0.001038668
0.001894752
-0.000606694
0.00187764
1.711273e-05
0.001095548
0.0007820915
-0.0002551361
0.001350684
-0.001726808
0.001471672
-0.00268149
0.0009546817
-0.002882034
0.000200544
-0.001191815
-0.001690219
0.001323042
-0.002514857
0.003272687
-0.001949645
0.00483855
-0.001565863
0.006830093
-0.001991543
0.009691114
-0.002861021
0.01229778
-0.002606668
0.008890432
0.00340735
-0.0005912224
0.009481654
-0.00666945
0.006078228
-0.00293529
-0.003734161
0.0009460489
-0.003881338
0.003581674
-0.002635625
0.00663603
-0.003054357
0.008636994
-0.002000963
0.006478873
0.00215812
0.00217668
0.004302193
-0.0002065681
0.002383248
-0.00364131
0.003434742
-0.008654173
0.005012864
-0.01195052
0.003296342
-0.01362165
0.001671137
-0.014524
0.0009023449
-0.01508294
0.0005589397
-0.01544993
0.000366998
-0.01569256
0.0002426266
-0.01574751
5.495005e-05
-0.01572179
-2.572035e-05
-0.0156576
-6.41892e-05
-0.01554943
-0.0001081714
-0.01542784
-0.0001215864
-0.01524887
-0.0001789706
-0.01503129
-0.0002175875
-0.01475645
-0.0002748319
-0.01445963
-0.0002968192
-0.01414757
-0.0003120599
-0.01378234
-0.0003652353
-0.0133992
-0.0003831397
-0.01300989
-0.0003893061
-0.01255651
-0.0004533801
-0.01208168
-0.0004748295
-0.01158285
-0.000498832
-0.01107899
-0.000503865
-0.01055511
-0.000523881
-0.009981902
-0.0005732043
-0.009418073
-0.0005638284
-0.008813845
-0.0006042279
-0.008192118
-0.0006217277
-0.007566649
-0.0006254683
-0.006934064
-0.0006325851
-0.006270066
-0.000663998
-0.005605718
-0.0006643477
-0.004935078
-0.0006706409
-0.00425327
-0.0006818072
-0.0035778
-0.0006754704
-0.002921719
-0.0006560807
-0.002231717
-0.0006900026
-0.001558566
-0.0006731512
-0.0008899996
-0.000668566
-0.0001455954
-0.0007444043
0.0006511011
-0.0007966965
0.001383358
-0.0007322573
0.002091027
-0.0007076684
0.00278781
-0.000696783
0.003467083
-0.0006792735
0.004145164
-0.000678081
0.004803504
-0.0006583396
0.005473491
-0.0006699872
0.006123305
-0.0006498135
0.006738471
-0.0006151669
0.007357363
-0.0006188915
0.007963239
-0.0006058764
0.008546195
-0.0005829559
0.009124909
-0.0005787134
0.00968856
-0.0005636514
0.0101993
-0.0005107434
0.01070427
-0.0005049681
0.01119316
-0.0004888914
0.01164115
-0.00044799
0.01208856
-0.0004474026
0.01248427
-0.0003957121
0.01285208
-0.0003678139
0.0131805
-0.0003284205
0.01346555
-0.0002850484
0.01374408
-0.0002785295
0.01398449
-0.0002404133
0.01418438
-0.0001998906
0.01434059
-0.0001562062
0.01445226
-0.0001116693
0.01453108
-7.882373e-05
0.01454184
-1.076108e-05
0.01450447
3.737579e-05
0.01435787
0.0001465951
0.01401917
0.0003387018
0.01347655
0.0005426197
0.0126388
0.0008377539
0.01117708
0.001461715
0.008337096
0.002839987
0.00380587
0.004531226
0.0003042126
0.003501658
-0.002077505
0.002381718
-0.006190501
0.004112996
-0.008801367
0.002610867
-0.007027002
-0.001774365
-0.003812013
-0.00321499
-0.0008975844
-0.002914428
0.003075299
-0.003972883
0.006245422
-0.003170123
1.145191e-05
0.00623397
-0.008711634
0.008723086
-0.0108534
0.002141761
-0.008161579
-0.002691816
-0.005078632
-0.003082947
-0.002661258
-0.002417374
-0.0004965517
-0.002164707
0.001921144
-0.002417696
0.003205387
-0.001284242
0.003131872
7.351497e-05
0.002833209
0.0002986632
0.002546104
0.0002871044
0.002026184
0.0005199201
0.001816846
0.0002093385
0.001713525
0.000103321
0.001869238
-0.0001557132
0.001417321
0.0004519167
0.000348377
0.001068944
-0.0002893206
0.0006376975
0.0001577792
-0.0004470997
0.0002673961
-0.0001096169
-0.000246602
0.0005139982
-0.0008140478
0.0005674457
-0.001489596
0.0006755481
-0.001475303
-1.429286e-05
-0.0005183847
-0.0009569183
0.0005693086
-0.001087693
0.001826565
-0.001257256
0.003268608
-0.001442044
-0.001195134
0.00688756
-0.005616764
-0.00225287
0.007886228
-0.001743398
0.008519827
-0.001083682
0.008864698
-0.0004188716
0.009093482
0.0004193439
0.008545438
0.002493192
0.005784642
0.005685741
0.001704067
0.006250199
9.030267e-05
0.002178897
0.0009965799
-0.001550249
0.00210049
-0.002247676
0.002958024
-0.001896202
0.00344485
-0.00109352
0.003465289
-3.325881e-06
0.002827034
0.001420347
0.0008365393
0.003341179
-0.002397757
0.004705969
-0.004722806
0.00327973
-0.004254843
-0.0002674185
-0.001271307
-0.004673756
0.001830424
-0.005616588
0.003981924
-0.004101145
0.005739971
-0.003323909
0.007953514
-0.004205087
0.01109392
-0.006001424
0.01429509
-0.00580784
0.01296393
0.004738509
0.002241313
0.02020427
-0.007569469
0.01588901
-0.005748091
-0.005555539
-0.003084558
-0.006544871
-0.001666711
-0.004053472
0.0006892607
-0.005410328
0.003626036
-0.004937739
0.005028248
0.0007559086
0.0008661876
0.008464253
-0.008791125
0.01204056
-0.01693639
0.01158001
-0.02103333
0.009109805
-0.02241177
0.004674776
-0.02268649
0.001945866
-0.02273336
0.0009492152
-0.02269518
0.0005207573
-0.02261432
0.0002861307
-0.02250859
0.0001369039
-0.02229795
-0.0001556962
-0.02207217
-0.0002514946
-0.02182847
-0.0003078905
-0.02153918
-0.0003974592
-0.0212375
-0.0004232682
-0.02087616
-0.0005403127
-0.02047679
-0.0006169532
-0.02001535
-0.0007362758
-0.01953069
-0.0007814788
-0.01903699
-0.0008057621
-0.01848582
-0.0009164032
-0.01791246
-0.0009564977
-0.01733734
-0.0009644277
-0.01668851
-0.001102213
-0.01601959
-0.001143748
-0.0153229
-0.001195517
-0.01461976
-0.001207006
-0.01389942
-0.001244224
-0.0131203
-0.001352328
-0.01235371
-0.001330414
-0.01154506
-0.001412881
-0.01071394
-0.001452848
-0.009881808
-0.001457597
-0.009045905
-0.001468488
-0.008171688
-0.001538216
-0.007296141
-0.001539894
-0.006416202
-0.00155058
-0.005524231
-0.001573778
-0.004641945
-0.001557756
-0.003781446
-0.00151658
-0.002885739
-0.00158571
-0.002007024
-0.001551866
-0.001129798
-0.001545792
-0.0001678461
-0.001706356
0.0008540445
-0.001818587
0.001804798
-0.001683011
0.002727053
-0.001629923
0.003633588
-0.001603319
0.004521875
-0.00156756
0.005410118
-0.001566324
0.006275785
-0.001524007
0.007154911
-0.001549113
0.008012056
-0.001506959
0.008827525
-0.001430635
0.009649436
-0.001440803
0.01046042
-0.001416858
0.01124296
-0.001365502
0.01202109
-0.001356841
0.012787
-0.001329556
0.01349033
-0.001214073
0.01419117
-0.001205807
0.01487418
-0.001171909
0.01551156
-0.001085363
0.01615035
-0.001086197
0.01672867
-0.0009740333
0.01728287
-0.0009220088
0.01779315
-0.0008387003
0.01825593
-0.0007478298
0.01871813
-0.0007407312
0.01914014
-0.0006624262
0.01951802
-0.0005777667
0.01985152
-0.0004897096
0.0201397
-0.0003998432
0.02039537
-0.0003344942
0.02058912
-0.0002045151
0.02078661
-0.0001601115
0.02095968
-2.647956e-05
0.02103947
0.0002589105
0.02105337
0.0005287208
0.02098583
0.0009053004
0.02072352
0.001724023
0.01957859
0.003984914
0.01601774
0.008092081
0.00837998
0.01113941
-0.00106946
0.01183116
-0.005817611
0.008861146
-0.004803191
0.001596447
-0.001679149
-0.004898407
0.0007638651
-0.005658004
0.002448164
-0.004598727
0.00544281
-0.006967529
0.006862057
-0.00458937
-0.002646119
0.01574215
-0.01207583
0.0181528
-0.01229879
0.002364725
-0.009146809
-0.005843799
-0.005592449
-0.006637307
-0.002889909
-0.005119914
-0.0005544254
-0.00450019
0.002388697
-0.005360819
0.004788464
-0.003684009
0.005387483
-0.0005255044
0.004597266
0.001088881
0.003594402
0.001289968
0.002926296
0.001188026
0.00289687
0.0002387647
0.002788144
0.0002120468
0.002942113
-0.0003096822
0.002617493
0.0007765364
0.001417231
0.002269206
0.0003631251
0.001691804
0.0005970335
-0.000681008
0.0007113746
-0.0002239581
-0.0003447738
0.001570147
-0.001946916
0.002169588
-0.002641591
0.001370224
-0.001920187
-0.000735697
-0.000641744
-0.002235362
0.0006702826
-0.00239972
0.002291465
-0.002878439
0.004092256
-0.003242835
-0.002719641
0.008303962
-0.006784545
-0.003772286
0.009491819
-0.002931256
0.01026692
-0.001858782
0.01060511
-0.000757066
0.01065197
0.000372484
0.01075909
0.002386078
0.009824552
0.006620277
0.007083221
0.00899153
0.004766295
0.004495822
0.00437637
-0.001160324
0.004792204
-0.002663509
0.005064476
-0.002168474
0.005125459
-0.001154503
0.004778931
0.0003432027
0.003888987
0.002310291
0.001763176
0.00546699
-0.002260228
0.008729372
-0.005439316
0.006458819
-0.004678654
-0.001028081
-0.001086745
-0.008265665
0.002059764
-0.008763096
0.004045613
-0.006086995
0.00570692
-0.004985216
0.007882825
-0.006380991
0.01118949
-0.009308085
0.01464305
-0.009261408
0.0139735
0.005408066
0.004720284
0.02945748
-0.007038022
0.02764732
-0.0101012
-0.002492362
-0.01113886
-0.005507207
-0.01125224
-0.003940099
-0.009135015
-0.00752755
-0.005147762
-0.008924992
-0.003598346
-0.0007935066
-0.01036314
0.01522905
-0.02111264
0.02279006
-0.02627161
0.01673898
-0.02674954
0.009587745
-0.02653187
0.0044571
-0.02655817
0.001972166
-0.02664205
0.001033096
-0.02668842
0.0005671306
-0.02668448
0.0002821893
-0.02664288
9.530693e-05
-0.02643941
-0.0003591742
-0.02618864
-0.0005022606
-0.02591171
-0.0005848234
-0.02558034
-0.0007288293
-0.02523619
-0.0007674131
-0.02481759
-0.0009589195
-0.02435473
-0.001079806
-0.02381568
-0.001275332
-0.0232487
-0.001348455
-0.02267178
-0.001382678
-0.02202294
-0.00156525
-0.02134742
-0.001632015
-0.02067134
-0.001640506
-0.01990377
-0.001869784
-0.01911225
-0.001935276
-0.01828695
-0.002020817
-0.0174535
-0.002040449
-0.0165993
-0.002098429
-0.01567211
-0.002279516
-0.01476142
-0.002241104
-0.01379743
-0.002376874
-0.01280639
-0.002443879
-0.01181315
-0.002450843
-0.01081463
-0.00246701
-0.009769009
-0.002583833
-0.008720988
-0.002587915
-0.00766614
-0.002605429
-0.006596503
-0.002643414
-0.00553654
-0.00261772
-0.004501796
-0.002551324
-0.00342675
-0.002660756
-0.002372572
-0.002606044
-0.001322099
-0.002596265
-0.0001802282
-0.002848226
0.001029606
-0.003028421
0.002164687
-0.002818092
0.003267697
-0.002732933
0.004351056
-0.002686678
0.005412825
-0.002629329
0.006473989
-0.002627488
0.007507483
-0.002557502
0.008556947
-0.002598576
0.009579233
-0.002529245
0.01055148
-0.002402883
0.01153125
-0.002420577
0.01249682
-0.002382426
0.01342793
-0.002296608
0.014354
-0.002282911
0.01526419
-0.002239746
0.01609847
-0.00204835
0.01693026
-0.002037604
0.01773987
-0.00198152
0.01849346
-0.001838946
0.01925047
-0.001843209
0.01993267
-0.001656234
0.02058686
-0.001576198
0.02118731
-0.001439156
0.02172908
-0.001289597
0.02227195
-0.0012836
0.02276385
-0.001154322
0.0232044
-0.001018322
0.02359062
-0.0008759292
0.02392254
-0.00073176
0.02421638
-0.0006283349
0.02443329
-0.0004214286
0.02463531
-0.0003621327
0.02477485
-0.00016602
0.02478344
0.0002503201
0.02471524
0.0005969249
0.02461316
0.001007382
0.02453481
0.001802374
0.02463662
0.003883098
0.02423939
0.008489311
0.01949552
0.01588328
0.008676794
0.02264989
0.001411608
0.01612633
0.003147112
-0.0001390563
0.0072299
-0.008981195
0.009454203
-0.007882307
0.009390442
-0.004534966
0.0089269
-0.006503987
0.005912137
-0.001574607
-0.005175013
0.0268293
-0.01353838
0.02651616
-0.01329164
0.002117982
-0.009646399
-0.009489038
-0.005549031
-0.01073467
-0.002597236
-0.008071709
-0.0003599338
-0.006737492
0.002580287
-0.00830104
0.005385254
-0.006488976
0.006231355
-0.001371605
0.00508626
0.002233976
0.003570256
0.002805973
0.002704648
0.002053633
0.002728378
0.0002150348
0.002580882
0.0003595427
0.002835354
-0.0005641542
0.002891307
0.0007205835
0.002268727
0.002891786
0.001580304
0.002380228
0.001588668
-0.0006893724
0.001101283
0.000263427
-0.0006753062
0.003346736
-0.002905012
0.004399294
-0.003320825
0.001786037
-0.002195965
-0.001860557
-0.0007397031
-0.003691624
0.0008744026
-0.004013826
0.002821403
-0.004825439
0.004962586
-0.005384018
-0.004541601
0.01000561
-0.00820004
-0.005577858
0.01141866
-0.0043443
0.01233415
-0.00277428
0.01277083
-0.001193739
0.01273196
0.0004113478
0.01263443
0.002483614
0.01267106
0.006583641
0.01180667
0.009855923
0.01011854
0.006183952
0.008807056
0.0001511604
0.008041873
-0.001898327
0.007363516
-0.001490118
0.006800702
-0.000591689
0.005989768
0.001154137
0.004565019
0.00373504
0.002182319
0.00784969
-0.001901475
0.01281317
-0.005363695
0.009921039
-0.004634645
-0.001757131
-0.0009648629
-0.01193545
0.001695417
-0.01142338
0.003136416
-0.007527994
0.004437088
-0.006285888
0.006560885
-0.008504789
0.0103055
-0.0130527
0.01470702
-0.01366293
0.01381298
0.006302107
0.00550549
0.03776498
-0.00760256
0.04075536
-0.01618874
0.00609382
-0.02106752
-0.0006284232
-0.02280445
-0.002203176
-0.02235537
-0.007976623
-0.02074477
-0.0105356
-0.02150115
-3.712292e-05
-0.02651186
0.02023976
-0.03149309
0.02777129
-0.0321181
0.01736399
-0.03157147
0.009041111
-0.03179842
0.004684051
-0.03211331
0.002287056
-0.03229533
0.001215117
-0.03236641
0.0006382142
-0.03234823
0.0002640023
-0.03227713
2.420614e-05
-0.03200037
-0.0006359279
-0.03167421
-0.0008284267
-0.03131679
-0.0009422427
-0.03089422
-0.001151397
-0.03046046
-0.001201175
-0.02993964
-0.001479733
-0.02936737
-0.001652077
-0.02870472
-0.001937984
-0.02800917
-0.002044006
-0.02730342
-0.002088434
-0.02651357
-0.002355094
-0.02569194
-0.002453645
-0.02487028
-0.002462169
-0.02394276
-0.002797298
-0.02298455
-0.002893488
-0.02198704
-0.003018326
-0.02098124
-0.003046252
-0.01995186
-0.003127803
-0.01883367
-0.003397715
-0.01773785
-0.003336917
-0.01657703
-0.003537692
-0.0153854
-0.003635511
-0.01418999
-0.003646254
-0.01298899
-0.003668012
-0.01173144
-0.003841378
-0.01047058
-0.003848781
-0.009200382
-0.003875625
-0.007912899
-0.003930898
-0.006633259
-0.003897359
-0.005384226
-0.003800357
-0.004085529
-0.003959453
-0.002812176
-0.003879397
-0.001548803
-0.003859638
-0.0001918953
-0.004205134
0.001241153
-0.00446147
0.00259933
-0.004176268
0.003923382
-0.004056985
0.005221905
-0.003985201
0.006493936
-0.003901359
0.007765346
-0.003898899
0.009003788
-0.003795943
0.01026386
-0.003858652
0.01148902
-0.003754399
0.01265682
-0.003570687
0.01383492
-0.003598673
0.01499412
-0.003541627
0.01611509
-0.003417576
0.01723163
-0.003399454
0.01832648
-0.003334599
0.01933379
-0.003055654
0.02033902
-0.00304284
0.02131656
-0.002959057
0.02222905
-0.002751438
0.02314639
-0.002760551
0.02397476
-0.002484596
0.0247697
-0.00237114
0.02550126
-0.002170722
0.02616577
-0.001954103
0.02683133
-0.001949157
0.02743628
-0.001759279
0.02798273
-0.001564766
0.02846314
-0.001356342
0.02888212
-0.001150745
0.02925837
-0.001004582
0.02954237
-0.0007054257
0.02981297
-0.0006327313
0.03000762
-0.0003606762
0.03002931
0.0002286324
0.0299339
0.0006923362
0.02973371
0.001207568
0.02941917
0.002116923
0.02908956
0.004212699
0.02943947
0.008139404
0.02882042
0.01650234
0.02345769
0.02801261
0.01792535
0.02165867
0.01708731
0.0006989847
0.01914549
-0.01103937
0.01980857
-0.008545388
0.01798062
-0.002707022
0.01366324
-0.0021866
0.005566597
0.006522035
-0.006458785
0.03885468
-0.01415762
0.034215
-0.01418625
0.002146612
-0.00982308
-0.01385221
-0.005139053
-0.0154187
-0.001892142
-0.01131862
6.109954e-05
-0.008690733
0.002698228
-0.01093817
0.005486438
-0.009277186
0.006257727
-0.002142895
0.004805259
0.003686444
0.002988736
0.004622496
0.001968335
0.003074035
0.001981445
0.0002019247
0.001998616
0.0003423712
0.002539189
-0.001104727
0.002787953
0.0004718189
0.002591294
0.003088445
0.002369682
0.00260184
0.002314116
-0.0006338069
0.001239011
0.001338532
-0.001371013
0.005956759
-0.003935338
0.006963619
-0.003973606
0.001824305
-0.002547517
-0.003286646
-0.0008284714
-0.005410669
0.00116337
-0.006005667
0.003493506
-0.007155576
0.006039211
-0.007929722
-0.00670243
0.01204843
-0.009917147
-0.007709145
0.01372178
-0.006017649
0.01481624
-0.003868741
0.01536292
-0.001740416
0.01536144
0.0004128247
0.01501769
0.002827366
0.01503971
0.006561618
0.01503561
0.009860025
0.0138815
0.007338065
0.01214606
0.001886596
0.01057466
-0.000326923
0.009201421
-0.0001168804
0.008177878
0.0004318542
0.006974015
0.002358
0.004929351
0.005779704
0.002092698
0.01068634
-0.001538454
0.01644432
-0.004614973
0.01299756
-0.004124415
-0.002247688
-0.001065235
-0.01499463
0.0003183371
-0.01280695
0.0008104663
-0.008020124
0.001752258
-0.00722768
0.004109969
-0.0108625
0.008412113
-0.01735485
0.01371981
-0.01897063
0.01239193
0.007629993
0.004527494
0.04562941
-0.009894271
0.05517713
-0.02319708
0.01939662
-0.03069046
0.00686496
-0.03382021
0.0009265801
-0.03557529
-0.006221551
-0.03711368
-0.008997203
-0.03888725
0.001736442
-0.03980273
0.02115524
-0.03876728
0.02673584
-0.03745891
0.01605561
-0.03740511
0.008987317
-0.03784064
0.005119582
-0.03817695
0.002623361
-0.03839433
0.001432499
-0.03851757
0.0007614501
-0.03851777
0.0002642057
-0.03846944
-2.412449e-05
-0.03816309
-0.0009422784
-0.03779877
-0.001192742
-0.03739603
-0.001344988
-0.0369019
-0.001645528
-0.03641063
-0.001692445
-0.03579802
-0.002092344
-0.0351303
-0.002319788
-0.03434628
-0.002722007
-0.03352357
-0.002866718
-0.03269216
-0.002919845
-0.03175165
-0.003295599
-0.03077362
-0.00343168
-0.02979937
-0.003436416
-0.02869425
-0.003902419
-0.02754898
-0.004038761
-0.02635742
-0.004209879
-0.02515841
-0.004245265
-0.0239307
-0.004355515
-0.02258977
-0.004738648
-0.0212829
-0.004643786
-0.01989162
-0.004928965
-0.01846645
-0.005060684
-0.01703404
-0.005078663
-0.01559672
-0.005105334
-0.01408748
-0.005350613
-0.01257399
-0.005362277
-0.011046
-0.005403614
-0.009499052
-0.005477846
-0.007956027
-0.005440384
-0.006449634
-0.005306749
-0.004877758
-0.00553133
-0.003335098
-0.005422057
-0.001812727
-0.005382009
-0.0002021919
-0.005815669
0.001492356
-0.006156018
0.003117408
-0.00580132
0.004706054
-0.005645631
0.006259409
-0.005538556
0.007781289
-0.00542324
0.00930522
-0.005422829
0.01078906
-0.005279782
0.01230307
-0.005372662
0.0137684
-0.005219726
0.01517069
-0.004972981
0.0165877
-0.005015682
0.01797341
-0.004927338
0.0193181
-0.004762271
0.02066235
-0.004743697
0.02197134
-0.004643593
0.02317748
-0.004261799
0.02438329
-0.004248645
0.02555198
-0.004127743
0.02663947
-0.003838933
0.02773853
-0.003859611
0.02872502
-0.003471088
0.02967127
-0.003317392
0.03054027
-0.003039715
0.03132547
-0.002739304
0.03211532
-0.002739012
0.03282505
-0.002469002
0.03346938
-0.002209096
0.0340277
-0.001914664
0.03451214
-0.001635184
0.0349489
-0.001441344
0.03526026
-0.001016789
0.03556332
-0.0009357911
0.03576639
-0.0005637413
0.03576312
0.0002318992
0.03562237
0.000833091
0.03537783
0.001452108
0.03502909
0.002465661
0.03453262
0.004709172
0.03438079
0.008291224
0.03549174
0.0153914
0.03618739
0.02731695
0.03491772
0.02292834
0.03301118
0.002605526
0.0317321
-0.009760294
0.0300617
-0.006874982
0.02662098
0.0007336921
0.01925101
0.005183375
0.00663533
0.01913771
-0.006275975
0.05176598
-0.01358375
0.04152277
-0.01389782
0.002460688
-0.008998219
-0.01875182
-0.004002253
-0.02041467
-0.0006876638
-0.01463321
0.0008755518
-0.01025395
0.002815298
-0.01287791
0.005154929
-0.01161682
0.005636141
-0.002624108
0.003951702
0.005370883
0.001986295
0.006587903
0.001142719
0.003917611
0.001657511
-0.0003128681
0.002036526
-3.664383e-05
0.002744114
-0.001812315
0.002840018
0.0003759152
0.002583925
0.003344539
0.002663447
0.002522317
0.002494005
-0.0004643645
0.0006885321
0.003144005
-0.002708316
0.009353608
-0.005185996
0.009441299
-0.00468262
0.001320928
-0.002976253
-0.004993013
-0.0009098076
-0.007477115
0.001532371
-0.008447845
0.004353512
-0.009976716
0.007381354
-0.01095756
-0.009238222
0.01451783
-0.01199747
-0.0102295
0.01651278
-0.008012603
0.01782407
-0.005180034
0.01848243
-0.002398777
0.01855008
0.0003451772
0.01811775
0.003259695
0.01781096
0.006868415
0.01766098
0.01001
0.01650433
0.008494715
0.01447956
0.003911372
0.01238742
0.001765216
0.01061486
0.001655681
0.009362206
0.001684507
0.007790128
0.003930077
0.005042014
0.008527819
0.001618948
0.01410941
-0.001293929
0.01935719
-0.003475948
0.01517958
-0.003314806
-0.002408831
-0.001733576
-0.01657586
-0.002185304
-0.01235522
-0.003096672
-0.007108756
-0.002632261
-0.00769209
0.0003735822
-0.01386834
0.004433297
-0.02141456
0.01007344
-0.02461077
0.008642056
0.009061376
0.001478331
0.05279313
-0.01444828
0.07110374
-0.03013244
0.03508079
-0.03786865
0.01460117
-0.04134924
0.004407165
-0.04439812
-0.003172673
-0.0476827
-0.005712625
-0.04987221
0.003925951
-0.04867861
0.01996165
-0.04573624
0.02379346
-0.04487545
0.01519483
-0.04528717
0.009399035
-0.04575249
0.005584904
-0.04612686
0.002997729
-0.04634814
0.001653778
-0.04646405
0.0008773614
-0.04640183
0.0002019857
-0.04631695
-0.0001090014
-0.04592535
-0.001333885
-0.04547506
-0.001643028
-0.04497125
-0.001848795
-0.04434873
-0.002268056
-0.04375868
-0.002282495
-0.04300643
-0.002844594
-0.04219942
-0.003126796
-0.04124763
-0.0036738
-0.0402495
-0.00386484
-0.03924965
-0.003919701
-0.03811172
-0.004433528
-0.03693252
-0.004610876
-0.03576569
-0.004603252
-0.03443692
-0.005231192
-0.03305515
-0.005420522
-0.03162459
-0.005640444
-0.0301856
-0.005684256
-0.02871606
-0.00582505
-0.02709997
-0.006354745
-0.02554086
-0.00620289
-0.02386877
-0.006601057
-0.02216125
-0.006768206
-0.0204453
-0.006794607
-0.01872668
-0.006823957
-0.01691843
-0.007158865
-0.01510774
-0.007172969
-0.01327017
-0.007241182
-0.01141387
-0.007334144
-0.009549831
-0.007304426
-0.007737912
-0.007118668
-0.005837234
-0.007432008
-0.003961689
-0.007297603
-0.00212407
-0.007219628
-0.0002108529
-0.007728886
0.001791608
-0.008158478
0.003740552
-0.007750265
0.005638406
-0.007543485
0.00749521
-0.00739536
0.009319167
-0.007247197
0.01114771
-0.007251372
0.01292685
-0.007058922
0.01475085
-0.007196665
0.01650344
-0.006972315
0.01819105
-0.006660587
0.01990214
-0.006726773
0.0215593
-0.006584495
0.02317292
-0.006375896
0.0248014
-0.006372171
0.02636916
-0.006211355
0.02781378
-0.005706424
0.02926547
-0.005700327
0.03066969
-0.005531964
0.03197138
-0.00514063
0.03329612
-0.005184348
0.03448285
-0.004657814
0.03562198
-0.004456522
0.03666637
-0.004084111
0.0376149
-0.00368783
0.03857479
-0.003698903
0.03942825
-0.00332246
0.04021731
-0.002998154
0.040894
-0.002591354
0.04149007
-0.00223126
0.04202954
-0.001980814
0.0424236
-0.001410847
0.04280164
-0.001313827
0.04307427
-0.0008363729
0.04312068
0.0001854847
0.04298613
0.0009676471
0.04272682
0.001711413
0.04233218
0.002860298
0.0418094
0.005231957
0.04125995
0.008840674
0.04194828
0.01470307
0.04481642
0.02444881
0.04604717
0.0216976
0.04370899
0.004943705
0.0404516
-0.006502905
0.03730579
-0.003729165
0.03334561
0.004693867
0.02499665
0.01353234
0.009744415
0.03438995
-0.004129936
0.06564033
-0.01109017
0.04848301
-0.01131838
0.002688894
-0.006194125
-0.02387607
-0.001391175
-0.02521762
0.001868578
-0.01789296
0.002434639
-0.01082001
0.003242556
-0.01368583
0.004700668
-0.01307493
0.004722039
-0.002645479
0.002784399
0.007308523
0.0009494884
0.008422813
0.0007708423
0.004096258
0.002050307
-0.001592332
0.002532434
-0.0005187709
0.003075202
-0.002355083
0.002909225
0.0005418916
0.002426808
0.003826956
0.002528921
0.002420205
0.001711427
0.0003531287
-0.00127282
0.006128253
-0.005025559
0.01310635
-0.006693713
0.01110945
-0.005474396
0.0001016119
-0.003487049
-0.006980359
-0.0009548976
-0.01000927
0.002007384
-0.01141013
0.005457676
-0.01342701
0.009048497
-0.01454839
-0.01218719
0.01753995
-0.0145192
-0.01325025
0.01993774
-0.01041039
0.0215115
-0.0067538
0.02231273
-0.003200005
0.02240915
0.0002487552
0.02192671
0.003742142
0.02134659
0.007448537
0.02070963
0.01064696
0.01908507
0.01011927
0.01667407
0.006322371
0.01410263
0.004336665
0.01202721
0.003731095
0.01058015
0.003131574
0.008538216
0.005972007
0.005073555
0.01199248
0.00107375
0.01810921
-0.001298744
0.02172969
-0.002656369
0.0165372
-0.002950635
-0.002114565
-0.003702434
-0.01582406
-0.006646854
-0.009410801
-0.00875113
-0.005004479
-0.00865
-0.00779322
-0.006244881
-0.01627346
-0.002791835
-0.02486761
0.001062142
-0.02846475
0.0004910157
0.009632502
-0.006745382
0.06002953
-0.02222992
0.08658827
-0.03769447
0.05054534
-0.04453503
0.02144173
-0.04817216
0.008044301
-0.0518762
0.0005313667
-0.05572278
-0.001866045
-0.0580778
0.006280971
-0.05688777
0.01877161
-0.05446364
0.02136934
-0.05405346
0.01478464
-0.05434639
0.009691967
-0.05476748
0.006005998
-0.05516052
0.003390764
-0.05540969
0.001902947
-0.05559972
0.001067391
-0.05551694
0.0001192058
-0.05549551
-0.0001304274
-0.05497782
-0.001851573
-0.05446371
-0.00215714
-0.053879
-0.002433504
-0.0531138
-0.00303326
-0.05244536
-0.002950935
-0.05152986
-0.003760094
-0.05058196
-0.004074695
-0.0494419
-0.004813862
-0.04823882
-0.005067913
-0.04705366
-0.005104863
-0.04569496
-0.005792233
-0.04428055
-0.006025283
-0.04288085
-0.00600295
-0.04129868
-0.006813367
-0.03964468
-0.007074522
-0.03793245
-0.007352673
-0.03618955
-0.007427157
-0.03445641
-0.007558184
-0.03249935
-0.008311809
-0.03064597
-0.008056274
-0.02862874
-0.00861828
-0.026587
-0.008809951
-0.02453774
-0.00884386
-0.02245314
-0.008908565
-0.02030683
-0.00930517
-0.01815029
-0.00932951
-0.01594777
-0.0094437
-0.01374025
-0.009541665
-0.01145663
-0.00958805
-0.00930274
-0.009272554
-0.007005259
-0.009729489
-0.004716747
-0.009586114
-0.002497383
-0.009438993
-0.0002157068
-0.01001056
0.002151668
-0.01052585
0.004492164
-0.01009076
0.006736872
-0.009788193
0.008968421
-0.009626909
0.01116692
-0.009445699
0.01335401
-0.009438456
0.01548556
-0.009190477
0.01769961
-0.009410713
0.01980201
-0.009074714
0.02182218
-0.00868076
0.02387748
-0.008782069
0.0258801
-0.008587115
0.02781954
-0.008315339
0.02976313
-0.008315764
0.0316467
-0.008094924
0.03337183
-0.007431549
0.03511036
-0.007438857
0.03677338
-0.007194993
0.0383473
-0.006714541
0.03993751
-0.006774562
0.04135017
-0.006070471
0.04272726
-0.005833617
0.0439617
-0.005318554
0.04509721
-0.004823338
0.04625291
-0.0048546
0.04725513
-0.004324682
0.04821027
-0.003953288
0.04899832
-0.003379403
0.04971148
-0.002944424
0.05036262
-0.002631955
0.0508078
-0.001856027
0.05126759
-0.001773617
0.05159109
-0.001159869
0.05159314
0.0001834326
0.05142343
0.00113736
0.05111484
0.002019999
0.05069103
0.003284111
0.05018642
0.005736563
0.04975975
0.00926735
0.0500066
0.01445621
0.05247469
0.02198072
0.0538865
0.02028578
0.05136487
0.007465338
0.04744229
-0.002580323
0.04350428
0.000208841
0.03950352
0.008694634
0.03157647
0.02145939
0.01572932
0.05023709
0.0008345236
0.08053513
-0.004846602
0.05416413
-0.004676748
0.00251904
-0.000113992
-0.02843882
0.004096997
-0.02942861
0.006350713
-0.02014668
0.00556031
-0.01002961
0.004718466
-0.01284399
0.004705007
-0.01306147
0.004002743
-0.001943215
0.001691382
0.009619884
0.0001198412
0.009994354
0.0003473885
0.00386871
0.00214696
-0.003391904
0.00292397
-0.00129578
0.003357412
-0.002788525
0.0028611
0.001038204
0.002013839
0.004674217
0.001513605
0.002920438
-0.0009665327
0.002833267
-0.00526653
0.01042825
-0.008349617
0.01618943
-0.008358485
0.01111832
-0.00633944
-0.001917434
-0.004050198
-0.009269601
-0.0009207411
-0.01313872
0.002641069
-0.01497194
0.006872651
-0.01765859
0.01110857
-0.01878431
-0.01559782
0.02132503
-0.01762074
-0.01695454
0.02418109
-0.01326645
0.02606403
-0.008636734
0.02703392
-0.004169895
0.02709858
0.0001840905
0.02651219
0.004328539
0.02566948
0.008291248
0.0245836
0.01173283
0.0223357
0.01236717
0.01938165
0.009276421
0.01631583
0.007402488
0.01387562
0.006171303
0.01198406
0.005023133
0.009110178
0.008845892
0.005152558
0.0159501
0.0009963669
0.0222654
-0.001118862
0.02384492
-0.002245258
0.0176636
-0.00438614
2.631783e-05
-0.008656493
-0.01155371
-0.01367089
-0.004396403
-0.01666108
-0.00201429
-0.01712298
-0.007331324
-0.01526993
-0.01812651
-0.01402882
-0.02610872
-0.01072433
-0.03176923
-0.01340046
0.01230864
-0.02097276
0.06760183
-0.0354161
0.1010316
-0.04761379
0.06274303
-0.05293467
0.02676261
-0.05723862
0.01234825
-0.06142616
0.004718907
-0.06541861
0.002126405
-0.06796302
0.008825384
-0.06740361
0.0182122
-0.0656059
0.01957162
-0.06527898
0.01445772
-0.06547256
0.009885552
-0.06594436
0.006477792
-0.06636134
0.003807745
-0.06654243
0.002084043
-0.0668319
0.001356853
-0.06659512
-0.000117568
-0.06653667
-0.0001888816
-0.06598673
-0.002401513
-0.06532954
-0.002814324
-0.0646919
-0.003071147
-0.06367858
-0.004046582
-0.06292509
-0.003704425
-0.06181071
-0.004874476
-0.06070273
-0.005182675
-0.05931276
-0.006203824
-0.05783677
-0.006543905
-0.05644007
-0.006501567
-0.05484285
-0.007389455
-0.05307847
-0.007789662
-0.05140781
-0.007673605
-0.04953899
-0.008682188
-0.04757539
-0.009038128
-0.04548158
-0.009446475
-0.0433709
-0.00953784
-0.04139303
-0.009536053
-0.03895703
-0.01074781
-0.03678815
-0.01022515
-0.03429266
-0.01111378
-0.0319092
-0.0111934
-0.02944968
-0.01130339
-0.02691244
-0.0114458
-0.02438969
-0.01182792
-0.02178242
-0.01193678
-0.01913842
-0.01208771
-0.0165478
-0.01213229
-0.01374863
-0.01238722
-0.01123988
-0.0117813
-0.008417071
-0.0125523
-0.005642808
-0.01236038
-0.002959733
-0.01212207
-0.0002069981
-0.0127633
0.00263052
-0.01336337
0.005350007
-0.01281025
0.008007346
-0.01244553
0.01072205
-0.01234161
0.01338995
-0.0121136
0.0160201
-0.01206861
0.01854955
-0.01171992
0.02127634
-0.01213751
0.02377976
-0.01157814
0.02620948
-0.01111047
0.02866152
-0.01123411
0.03107345
-0.01099904