/*--------------------------------*- C++ -*----------------------------------*\
| =========                 |                                                 |
| \\      /  F ield         | OpenFOAM: The Open Source CFD Toolbox           |
|  \\    /   O peration     | Version:  2406                                  |
|   \\  /    A nd           | Website:  www.openfoam.com                      |
|    \\/     M anipulation  |                                                 |
\*---------------------------------------------------------------------------*/
FoamFile
{
    version     2.0;
    format      ascii;
    arch        "LSB;label=32;scalar=64";
    class       volScalarField;
    location    "0.52";
    object      p;
}
// * * * * * * * * * * * * * * * * * * * * * * * * * * * * * * * * * * * * * //

dimensions      [0 2 -2 0 0 0 0];

internalField   nonuniform List<scalar> 
4529
(
-2.607804e-07
-1.392212e-07
-9.662841e-09
-1.607372e-08
-4.024553e-07
7.102346e-08
-8.612059e-07
-9.50998e-09
-4.914484e-07
4.134789e-08
-2.673211e-07
9.872828e-08
9.745986e-08
8.928788e-08
-5.437724e-08
-2.095252e-08
1.185254e-07
-6.053697e-07
-8.744938e-08
1.911634e-07
-4.866816e-07
-1.458831e-07
-2.781045e-07
-1.641501e-07
1.664472e-09
-1.452634e-08
5.215964e-08
-2.164435e-07
-3.593893e-08
-1.744762e-07
-3.888523e-07
-1.153382e-07
8.595428e-09
3.76504e-09
-3.960851e-07
-2.731588e-07
8.265869e-08
-6.491771e-08
3.347666e-08
3.236118e-08
6.303451e-08
-6.484142e-11
-3.782721e-08
-1.84349e-07
-7.966655e-08
-8.137637e-08
-1.314057e-07
-1.913263e-07
-2.027458e-07
-4.993958e-07
-1.4429e-08
3.134757e-09
-1.303499e-07
-1.178139e-07
8.74113e-09
1.099668e-07
1.649655e-07
-2.490115e-07
-3.661766e-07
-3.792209e-07
-2.232366e-08
9.971917e-09
-6.219515e-07
-1.998991e-07
4.521403e-08
-2.509879e-08
-1.01398e-08
-1.067321e-08
-4.077256e-08
-5.532151e-07
-2.934854e-07
2.52475e-09
-2.179277e-07
-5.103743e-08
-1.405374e-07
-2.337235e-08
-4.691401e-08
-5.794714e-08
-6.100761e-08
1.294993e-07
-2.071257e-07
5.35151e-08
-3.390062e-07
6.602882e-08
-4.490555e-07
-5.879975e-07
-3.0022e-07
-2.511308e-07
-9.987555e-09
4.046167e-08
-1.758595e-07
-2.212038e-07
-5.163629e-08
-6.271559e-07
-5.21047e-07
-9.428169e-07
-7.852097e-07
-4.084356e-07
-1.28341e-07
-3.056798e-07
-3.38876e-08
-7.069752e-08
-1.254981e-08
-3.990343e-07
-2.418934e-07
-1.077216e-07
4.732303e-09
-9.246767e-09
-2.35221e-08
-1.883582e-07
2.315994e-08
-7.1625e-08
-5.770033e-07
-2.164308e-07
7.071579e-08
1.47701e-08
-1.316585e-08
-1.934828e-07
-6.536844e-07
-1.724232e-08
-2.997086e-08
8.985453e-09
-3.649071e-08
-7.486403e-08
2.2647e-08
-1.053176e-06
7.881268e-08
-2.854218e-09
3.238998e-08
3.490454e-08
7.319303e-08
-6.379657e-08
-4.230922e-08
-1.903764e-07
-3.21469e-07
-2.479716e-08
3.430462e-08
-5.785178e-07
-7.205118e-08
-9.980249e-08
1.025518e-07
2.456618e-08
-2.865982e-07
-8.36073e-08
-6.969687e-08
3.918523e-08
-5.967047e-07
-1.031292e-06
-1.708282e-08
-7.391581e-07
4.443422e-09
-8.355727e-11
-9.222851e-09
-1.338117e-07
-6.878851e-07
-4.852267e-07
-5.322687e-08
9.119012e-08
5.651119e-09
4.158971e-08
-2.141873e-08
-1.333969e-07
-2.260127e-07
-5.932076e-08
1.09705e-08
-2.965612e-07
-8.939726e-07
4.428036e-08
-3.102018e-07
-1.714925e-08
-6.353553e-08
-2.488815e-07
-9.702904e-07
-4.463992e-08
-2.07656e-07
-6.137886e-07
-8.293656e-09
-1.51142e-07
5.006276e-08
-6.755232e-07
-4.425946e-08
-1.431429e-07
-1.25679e-07
-1.035589e-08
-5.594203e-08
7.93842e-08
-1.469882e-07
-8.07232e-08
-1.175989e-08
-5.346914e-07
-1.210606e-07
-3.278771e-08
-1.390589e-08
-1.902683e-07
-1.254509e-07
-7.292962e-08
-3.109419e-07
1.190443e-07
-1.262223e-07
-1.114331e-07
-8.136981e-08
-9.903114e-08
-1.955054e-08
-2.045743e-07
-5.181413e-10
-1.019348e-07
-8.191236e-08
-3.199881e-08
2.715275e-08
-7.241394e-07
-6.905328e-07
1.807345e-08
-1.535551e-07
-4.732787e-07
-3.715683e-08
-4.617666e-08
-6.732657e-07
-2.718504e-07
-8.205363e-07
-4.930962e-07
1.370619e-07
-3.602599e-07
1.874505e-08
4.826967e-08
-3.76003e-07
-4.120755e-07
-1.693933e-07
-2.461288e-07
-9.501016e-08
-9.830087e-08
-8.057033e-07
-1.770919e-08
-1.655344e-08
-3.435868e-07
-8.883179e-09
7.73729e-09
6.126948e-09
3.074675e-08
-2.32496e-07
4.335637e-08
7.181588e-08
-2.532958e-07
1.294031e-07
-1.965349e-07
-2.274621e-07
-3.401322e-07
-2.548195e-07
-1.036461e-06
1.217233e-08
3.090417e-08
-1.196405e-07
-2.195273e-07
-6.796136e-07
-2.793352e-08
-4.117025e-07
-1.264147e-08
1.082235e-07
3.563451e-09
-3.41293e-08
-3.802288e-07
-9.967127e-08
-7.836103e-08
-2.821742e-07
-1.681471e-08
-1.683966e-08
2.276155e-08
-1.137962e-08
-1.128895e-07
-1.760452e-08
-3.482022e-08
-2.046261e-07
-2.707463e-07
-1.957031e-08
-1.91317e-07
-1.235041e-08
-4.573452e-07
-2.238858e-07
8.565109e-08
-2.170626e-07
-1.181093e-08
1.496883e-08
-4.461151e-08
1.812384e-08
1.589987e-07
4.766893e-08
-5.083828e-07
1.088038e-07
-1.355155e-07
-1.253291e-07
2.942686e-07
-6.601572e-07
3.606835e-07
6.216679e-08
-4.311737e-08
1.436075e-08
-2.119994e-07
-2.640703e-07
8.345898e-08
-7.111218e-07
-6.210145e-07
-1.12941e-07
-2.120308e-07
-3.076026e-07
-2.962577e-07
-1.617344e-07
2.939533e-07
-1.101984e-07
-9.415884e-07
-3.759251e-07
-3.431387e-08
6.321377e-09
-5.64117e-08
-6.791057e-07
-1.609403e-07
-1.369235e-07
-1.785536e-07
5.732253e-08
-2.572928e-07
-5.08215e-07
1.847308e-09
4.889607e-08
-1.366511e-08
-1.324599e-08
-4.564211e-08
6.719009e-08
-4.480312e-08
-2.852867e-07
-1.80855e-08
-4.107775e-08
-1.044799e-07
-8.76046e-08
-1.495517e-07
5.730918e-08
-1.614096e-07
1.570656e-07
-7.76517e-08
2.027381e-08
-1.28172e-07
-1.619396e-07
5.352323e-08
-1.381867e-09
-8.149482e-07
-5.374062e-07
-1.198149e-07
-2.069436e-07
-1.613909e-07
7.258314e-08
7.608481e-08
-5.785586e-07
-1.037822e-07
-4.094079e-08
1.341711e-08
-8.554745e-07
-4.456462e-08
-7.825717e-09
2.898316e-07
-2.569757e-08
-1.08831e-07
-4.963988e-08
-3.637582e-08
-6.044562e-08
-1.856849e-07
-6.75436e-08
-4.822295e-07
-2.686946e-07
4.349125e-08
-9.86192e-08
-1.442006e-07
4.173406e-08
-4.421477e-07
-2.533402e-07
-5.410536e-07
-3.305155e-07
-1.709762e-09
4.354875e-08
-3.516126e-07
-2.291547e-07
-1.869759e-08
7.759986e-09
-1.276164e-07
-1.672423e-07
3.502651e-07
3.064754e-08
-1.703834e-08
9.269224e-10
-7.946459e-08
-1.984127e-09
-2.495927e-07
-4.281181e-07
2.987317e-08
-4.986511e-07
-4.059736e-08
-1.062654e-07
-1.532796e-08
9.009457e-08
-2.761964e-08
1.757901e-07
5.579482e-11
5.484463e-08
9.418757e-08
-1.160018e-07
-1.222062e-08
-1.808582e-07
-3.964867e-08
-6.218126e-07
5.70875e-09
-1.688507e-07
-1.08906e-07
-1.464498e-08
-3.094816e-07
4.53728e-08
-2.666496e-07
-4.25287e-07
7.602168e-08
-1.73748e-07
-2.4181e-08
4.885944e-08
-4.935086e-08
3.488667e-07
-1.350875e-07
-6.116402e-08
-6.055026e-08
-1.488615e-08
-5.455309e-09
4.017245e-08
4.563946e-08
-7.829386e-07
9.588428e-08
-6.718021e-07
-5.953816e-07
-1.836592e-07
-4.131358e-07
-1.423795e-07
-6.00997e-07
8.0335e-08
5.385599e-08
-6.386e-07
-5.986046e-08
-3.185089e-09
-7.035643e-08
1.424664e-08
4.221567e-08
4.458548e-08
-1.503292e-07
-1.515744e-07
9.061812e-08
-4.522079e-07
-4.24173e-07
-4.018279e-08
-1.585572e-07
-1.036583e-07
-2.701586e-08
-5.815986e-08
-6.015217e-08
-1.958101e-08
-9.876439e-08
-9.962647e-08
-6.098956e-08
-4.906755e-08
-1.020947e-07
4.378021e-08
-5.168936e-08
-6.905844e-08
-4.532974e-08
-4.023345e-07
-2.364487e-07
-7.051955e-07
-4.131216e-08
1.299307e-07
-1.207804e-08
-1.724185e-07
4.227668e-08
3.965347e-08
1.428277e-08
-1.360744e-07
-5.036034e-07
-5.02584e-07
-6.416071e-07
-7.375805e-09
-2.080119e-08
-1.838068e-07
-3.395813e-08
-1.594897e-08
-2.781911e-07
-3.26836e-08
-6.708611e-07
-1.552249e-07
-1.028497e-08
-7.870513e-07
6.064314e-08
2.203194e-08
-4.869975e-08
9.15312e-09
-2.23724e-07
-3.31176e-07
-3.624217e-07
-4.088488e-07
-5.793237e-07
2.825993e-09
9.931699e-09
-1.715575e-07
-6.559223e-07
2.174555e-08
-4.995817e-08
5.384123e-08
-7.512937e-09
-7.134756e-09
4.269674e-09
9.802063e-08
-6.61672e-07
-8.648081e-08
4.66896e-08
-1.124521e-08
-2.440902e-07
-1.440453e-07
-4.627139e-07
-1.637214e-07
-3.730137e-08
-1.496598e-07
-3.572661e-07
5.080671e-07
-4.167938e-07
-8.023475e-08
4.320055e-07
1.645547e-07
-2.620075e-08
4.193062e-08
-2.640338e-07
-1.878143e-07
-2.264521e-07
-3.788459e-07
-4.492813e-07
-4.571369e-07
-7.254245e-08
-7.2044e-08
2.663197e-08
-5.640505e-08
3.09311e-08
3.426513e-08
-7.550845e-09
-5.781229e-08
1.368187e-08
-1.30121e-07
3.830425e-08
-1.402392e-08
3.396099e-09
-7.227222e-09
-6.679723e-08
-3.088562e-07
-1.954612e-07
-2.375727e-07
-2.038052e-07
-1.278332e-07
-1.552954e-07
-8.497085e-09
-1.534565e-07
-1.849144e-07
-6.838139e-07
-3.758266e-07
-2.659596e-07
-1.781318e-08
1.306937e-08
-2.931658e-08
-3.370679e-07
4.386197e-08
-1.25793e-07
-1.178888e-07
-1.026852e-07
-3.157708e-08
-7.242822e-09
-2.340949e-07
-6.912636e-08
5.946006e-08
-4.459631e-07
5.114451e-08
-2.648994e-07
-5.169383e-09
-7.732855e-07
2.55212e-07
-1.284873e-07
7.153126e-08
4.187565e-08
-3.627056e-07
-1.621013e-07
-4.474568e-07
5.881979e-08
-3.831944e-08
3.423904e-09
-6.028192e-07
-8.772257e-08
-1.775703e-08
6.765285e-09
-1.823381e-08
-5.946608e-09
1.627344e-08
3.01114e-08
-9.831966e-09
3.671751e-09
1.51476e-07
-5.060918e-07
-4.452569e-07
4.492125e-08
-1.79851e-08
-2.617082e-07
-8.554782e-08
1.460793e-09
-1.747268e-08
1.033409e-07
-6.773327e-08
-5.089564e-08
-5.9788e-08
1.7104e-09
-5.835986e-07
-3.018942e-07
-3.723933e-08
-3.769993e-07
-3.905896e-09
7.990389e-08
-9.607529e-08
3.796624e-07
-1.146754e-07
-4.373893e-07
-2.783749e-07
-1.881871e-07
-3.295673e-07
-1.723785e-07
-1.453751e-07
5.906009e-09
3.454358e-08
-9.372231e-08
2.290327e-08
4.911301e-08
-1.926389e-07
-1.172347e-07
6.381106e-08
-4.423283e-08
4.71718e-08
-1.711942e-07
-1.385566e-07
-2.840496e-08
-1.911739e-07
-1.294403e-07
-1.21292e-09
3.201287e-07
-1.742229e-07
3.21704e-08
9.572917e-09
-5.163363e-07
1.891001e-08
2.583378e-08
1.469667e-08
-4.344088e-07
-1.586238e-07
-1.745797e-07
-1.620108e-07
-5.268185e-07
4.739894e-08
-2.240488e-08
5.627245e-09
-3.443688e-07
-3.161897e-07
-1.143513e-07
-4.370029e-07
-3.942505e-07
-4.146972e-07
-1.319598e-08
-8.445326e-07
2.637242e-08
3.52963e-08
7.54734e-08
-1.163136e-08
-5.153106e-07
-1.346042e-07
2.285405e-08
5.320963e-08
-2.659556e-07
-6.669589e-08
3.670816e-08
-2.70278e-08
3.450203e-09
-3.933529e-07
-5.960622e-08
-1.453614e-07
-2.589646e-08
-1.162473e-08
1.98921e-08
-2.629518e-07
1.396127e-07
9.198751e-09
-7.521486e-07
1.939464e-08
-6.720587e-08
6.123216e-08
-4.138463e-08
-1.596927e-07
-5.230223e-08
8.448259e-08
-1.726152e-07
-2.990517e-08
-6.265303e-08
-9.309901e-08
-2.699284e-08
-2.370721e-07
6.01724e-08
-2.290503e-07
-1.693366e-08
-7.514721e-08
-1.563057e-07
9.257562e-09
-4.495955e-07
-2.329109e-07
-2.221132e-07
-8.457787e-08
-1.103388e-07
-2.789687e-07
-2.780207e-07
-1.279152e-07
-5.152043e-08
8.207749e-08
-2.167622e-07
-1.063216e-07
4.780055e-08
-2.589199e-07
-5.53793e-07
-1.242121e-07
-1.058547e-06
-7.016859e-08
7.317598e-08
-1.357357e-08
-1.882137e-08
-4.713456e-08
4.312771e-09
-4.759691e-08
-3.889398e-08
1.883532e-07
-3.442844e-07
-1.041539e-07
-3.685159e-07
-3.033652e-08
-6.526126e-08
-1.731057e-08
1.220757e-08
2.147113e-08
-4.039583e-08
2.31541e-08
-2.270222e-08
-3.641873e-09
-4.155604e-08
-1.961696e-07
-3.722338e-07
-3.223426e-07
8.874207e-09
-4.209812e-11
-3.22519e-08
-2.969347e-08
-8.249069e-08
3.107394e-08
-1.883236e-10
2.726865e-08
3.837732e-08
1.003865e-08
1.806604e-08
-2.048245e-07
-5.872954e-08
-2.360695e-08
-4.223023e-07
-1.857752e-07
-2.476723e-07
-2.2865e-08
-4.63768e-09
7.379328e-09
-4.041216e-08
4.195778e-08
5.652332e-08
4.152085e-08
-3.678635e-08
6.841273e-08
-2.337357e-07
-3.442155e-07
-8.670582e-07
-6.31267e-07
-1.384443e-08
-2.591241e-07
-3.337017e-07
-2.264311e-07
-1.034122e-07
-4.998071e-07
-4.751359e-07
-7.262388e-07
-6.285763e-07
-7.494865e-07
-7.679021e-07
-3.239755e-07
-2.971406e-07
-3.891683e-07
-3.809222e-07
2.538766e-09
-4.414234e-08
9.428437e-08
-3.99183e-09
7.789875e-08
-5.316015e-07
-4.212867e-07
6.205982e-08
-1.877421e-09
1.84677e-08
-4.166589e-09
-2.587553e-07
4.497065e-08
-9.295887e-09
4.373457e-08
-2.215274e-08
-8.83325e-09
-3.604595e-07
-1.780003e-07
3.275331e-08
-9.511545e-08
-2.498621e-07
-4.336724e-07
-2.160739e-07
-3.489936e-07
-1.147437e-07
-2.969112e-10
-1.979291e-08
-2.946373e-07
-2.371259e-07
5.218055e-08
-1.925465e-07
5.425306e-08
-2.416559e-08
-1.947463e-07
1.338747e-07
6.814719e-08
6.511601e-08
-7.819053e-07
-4.689742e-08
1.735196e-09
8.418226e-08
3.329246e-08
-7.797444e-09
-3.385681e-07
3.959087e-08
-9.644827e-07
-8.700724e-08
8.803404e-08
3.652747e-07
-3.915105e-08
-4.660027e-08
-1.523982e-07
-2.222802e-07
-2.98568e-07
-2.685237e-07
5.828294e-08
-2.837896e-07
-1.297616e-07
-7.133522e-07
9.056952e-09
1.115419e-08
-1.798897e-07
-4.694162e-07
-3.429645e-07
-3.663286e-07
-4.069794e-07
6.195362e-08
2.54312e-09
3.269957e-08
-3.95324e-07
9.724638e-08
-1.274224e-09
1.520574e-08
-1.169961e-07
-1.911168e-07
-3.683255e-07
-3.558731e-08
-6.523057e-07
-6.70691e-07
-4.652854e-08
-9.944191e-07
-2.56133e-07
-3.570133e-07
-4.661319e-08
-4.446695e-07
-6.832609e-07
-2.225738e-07
7.226239e-09
-1.151505e-07
-3.691467e-08
-9.084558e-08
-2.381551e-07
-2.568808e-07
-3.271309e-07
-2.832211e-07
7.36018e-08
-3.575546e-07
-2.147851e-07
-2.97104e-07
-3.402368e-07
-2.315089e-07
-2.158798e-07
-1.848195e-08
-1.10387e-07
-8.48879e-08
-3.50864e-09
-2.603557e-08
2.503573e-08
2.540512e-08
3.144428e-08
-1.379469e-07
-1.409993e-07
8.396256e-09
-1.609398e-07
5.81927e-08
-2.457927e-07
-2.57733e-07
-4.576478e-07
2.896095e-09
-3.289021e-09
2.514293e-08
-1.207558e-08
1.28471e-08
-5.65752e-07
-7.789742e-08
1.083148e-07
-7.179482e-09
1.01868e-07
-2.406378e-07
-3.338893e-07
-9.181319e-08
-2.326456e-07
-1.884261e-08
1.056658e-08
-3.674777e-07
-4.486957e-07
-4.895077e-08
1.415234e-08
4.841541e-09
2.83482e-08
-7.942892e-09
-2.896692e-07
-7.823977e-07
-8.565307e-08
-4.290554e-08
-1.261889e-08
-3.658202e-09
-3.977734e-07
-5.117576e-07
-3.775324e-07
-4.725024e-07
-5.190642e-07
-5.362714e-07
-2.908387e-07
-5.099977e-07
-4.275904e-07
-6.566051e-07
-3.597414e-07
-1.099523e-07
-3.092847e-08
-1.063627e-07
1.82308e-07
7.53456e-08
-3.035356e-07
-2.245453e-07
-1.90852e-07
-7.175084e-07
7.461109e-09
-2.112316e-07
-2.057617e-07
-1.962448e-07
-7.150887e-07
-3.087387e-07
4.329491e-08
5.224647e-08
9.492201e-09
-3.422992e-08
-1.309609e-08
7.897226e-08
-9.829129e-08
-2.416793e-07
-2.768402e-08
-5.509578e-08
-5.441546e-08
-4.314829e-08
-1.224358e-08
-1.60609e-07
-1.971537e-07
-9.533808e-08
-8.750436e-08
-1.328979e-07
-6.694344e-08
-7.520579e-08
-4.272079e-07
-4.352408e-07
-1.514166e-07
-3.222503e-07
-7.717335e-08
2.247661e-08
8.6366e-08
-7.186256e-07
5.341072e-08
-9.681093e-08
-3.996477e-07
-2.827603e-07
-2.230274e-07
-2.785012e-07
-1.515391e-07
-1.36637e-08
-1.398344e-08
-3.944711e-07
-8.24632e-08
-9.668238e-08
-3.799615e-08
4.778103e-07
-1.540565e-08
-6.782646e-09
-2.578998e-08
-2.170614e-08
1.279402e-09
-1.373868e-07
-1.179765e-07
-3.601441e-07
-8.749173e-07
-1.175002e-08
-7.968643e-08
-1.144765e-07
-1.444512e-07
-6.300952e-07
9.747043e-08
-3.630882e-07
-2.287908e-08
-4.541367e-07
-2.530965e-07
-1.547726e-07
2.302167e-08
-1.660133e-07
-7.89266e-08
-2.041936e-07
-2.042975e-07
-2.626237e-07
-2.66597e-07
6.245555e-08
-3.136614e-07
-3.468489e-07
-5.151146e-07
-1.081227e-07
-1.785822e-07
-1.694329e-07
-1.05315e-07
-2.017902e-07
-3.367615e-08
-1.08844e-07
-1.773814e-07
1.940716e-07
-1.927677e-07
-7.359091e-10
6.4996e-08
9.353612e-08
2.338343e-08
4.142695e-08
-1.483649e-07
-9.922972e-08
-1.995875e-08
-7.421183e-08
-7.686145e-08
-4.262184e-08
5.200915e-08
1.243758e-07
7.193566e-08
1.513386e-07
-4.306847e-07
-4.233565e-08
9.639041e-08
6.222058e-08
9.813814e-09
-4.586836e-07
-3.417659e-07
-1.444569e-07
6.435377e-08
-3.038612e-08
8.841496e-09
4.451279e-08
2.622732e-08
7.667456e-08
7.716481e-08
-8.717906e-07
-9.182445e-07
-5.28808e-07
-6.896861e-07
-6.315809e-07
-7.167917e-07
-8.029156e-07
1.358075e-07
-3.825189e-08
-3.127761e-07
1.507742e-07
-1.586351e-07
-3.665987e-07
-3.451572e-07
-5.631671e-08
-2.366395e-07
-1.371496e-07
-1.9231e-07
-2.501772e-07
-2.417757e-07
-2.062729e-07
-1.177328e-08
-4.82341e-08
-9.614935e-08
-7.240021e-07
-7.973613e-08
-2.161904e-07
-1.447035e-07
-1.223255e-07
-2.124703e-07
-5.5123e-07
-5.815161e-07
9.228317e-09
2.076945e-08
-1.742749e-08
-1.613499e-07
-1.329918e-07
-1.645892e-07
-1.533956e-07
-1.012788e-07
-2.135358e-07
-8.94141e-07
5.820303e-08
-6.564174e-08
-4.440475e-09
-4.03189e-07
-2.139968e-07
-2.698499e-07
5.088036e-08
-9.731018e-08
3.613194e-08
-6.109202e-08
1.192823e-07
1.144266e-07
-2.898388e-08
1.249194e-09
-8.356447e-08
-3.784398e-07
-3.530057e-07
-2.950597e-07
-3.598787e-07
-3.738941e-07
-1.513637e-07
-1.597723e-07
1.008981e-07
-1.664395e-08
-7.835184e-08
-5.664505e-08
-5.480125e-07
-7.541164e-07
-3.668768e-07
6.426249e-08
-1.077178e-07
-8.114961e-07
-1.574165e-08
-5.541091e-09
-3.03225e-08
-4.993209e-09
-2.096673e-07
-3.197416e-07
-9.671603e-08
-3.875247e-07
-1.372783e-07
-2.291207e-07
-2.684635e-07
-2.864131e-07
-2.302455e-07
-8.854433e-08
-7.512692e-08
9.274997e-08
-6.159303e-07
-5.81211e-07
-1.419577e-07
4.435329e-08
-5.699589e-07
-2.050434e-08
6.596026e-08
7.953506e-08
-6.638803e-08
-6.957308e-08
-2.250366e-07
-2.870429e-08
-1.262038e-07
-6.199213e-08
-5.293618e-08
-5.631504e-08
-9.538344e-07
-9.493635e-07
-1.784377e-07
-1.066158e-07
-4.014368e-08
4.167961e-08
2.87614e-08
1.040353e-07
-5.860727e-07
-2.862088e-07
-2.329338e-09
-2.365088e-07
-1.860158e-08
-3.662734e-07
-8.37698e-11
-9.109163e-10
-8.026454e-09
3.969161e-08
-7.942835e-07
-8.517713e-09
-7.881925e-07
1.539255e-08
-1.025134e-07
-5.254991e-08
-1.383536e-07
1.66767e-07
-5.556555e-07
-7.536254e-07
-4.549633e-07
-1.275168e-07
-2.319163e-07
-4.728925e-08
-6.547028e-08
7.330457e-08
-6.740474e-08
-3.522014e-08
7.973945e-08
1.408303e-08
3.068041e-08
-1.355905e-07
-1.18969e-07
1.543653e-07
-3.061587e-07
6.992493e-08
3.553642e-08
-2.087193e-08
-1.294562e-07
-1.1991e-08
-1.165117e-08
1.422204e-08
-1.479113e-07
-6.897447e-08
-6.007671e-07
7.315072e-08
1.959534e-07
-4.990184e-07
-7.828759e-07
7.190953e-08
-2.581538e-07
-7.657161e-08
5.784407e-08
6.241943e-08
-2.230749e-07
-2.208038e-07
-7.075992e-08
-1.141404e-07
4.560212e-08
-5.861313e-08
-4.36887e-07
4.764727e-08
-1.974309e-09
-5.099448e-07
1.65892e-07
-1.051002e-07
5.655056e-08
9.697504e-08
-7.202023e-07
-3.895123e-07
-6.947494e-07
-1.282479e-07
2.551996e-08
1.2136e-08
-8.562616e-08
-1.260279e-07
3.341922e-08
-5.808178e-08
-5.430068e-07
-1.713426e-07
-1.041137e-06
-1.187473e-07
1.794407e-08
-4.667326e-07
7.9669e-08
-2.155514e-07
-1.638665e-07
-9.789392e-10
-1.856155e-08
5.536893e-08
6.85296e-08
-9.943086e-07
2.926083e-07
-4.409833e-07
-1.126133e-06
-2.308374e-07
4.880943e-08
-2.186344e-07
3.272924e-08
-4.217885e-07
8.705476e-08
9.050312e-08
-1.209899e-07
-4.868615e-07
-6.901272e-08
-1.622813e-07
-8.880939e-08
-2.098156e-07
-1.147502e-07
-1.811017e-07
-4.527441e-07
-2.900431e-07
-1.427853e-09
1.498988e-08
3.849533e-08
5.47631e-08
-8.444889e-08
-2.640496e-07
-4.086419e-07
-2.462466e-07
-2.64919e-07
-3.056635e-07
-4.826195e-07
-1.24245e-08
1.197148e-08
-1.044717e-06
1.569045e-08
-5.079907e-08
-4.878221e-07
2.95726e-08
-2.433854e-07
-1.75234e-07
-2.879406e-07
-3.986889e-07
-1.447919e-07
-3.866392e-07
-4.14146e-08
-5.267614e-07
-1.109647e-06
6.330674e-08
-3.235093e-07
-2.720798e-07
6.749646e-08
-7.730494e-07
-8.407537e-09
8.186963e-08
3.912037e-08
-7.454081e-08
7.187201e-08
-1.153655e-07
-6.953169e-08
1.164814e-07
3.668625e-08
7.123771e-08
-1.46497e-08
-1.309701e-06
-3.889939e-07
-2.389084e-08
8.412057e-08
-1.143141e-07
-2.11762e-07
4.300416e-08
-1.282702e-08
-3.366603e-07
-1.162331e-07
-1.883968e-07
-2.58822e-07
2.602442e-08
-2.974349e-08
-1.407135e-08
1.404593e-08
5.285336e-08
-1.308228e-07
-6.404667e-07
1.151311e-07
-1.13871e-07
-2.635131e-07
-1.053082e-07
-6.242996e-09
-2.460155e-07
-2.346929e-07
-2.346055e-07
-1.447932e-07
-4.824581e-08
-2.301288e-08
-2.098211e-08
-9.358247e-09
2.208237e-07
1.71971e-08
2.628455e-07
2.621294e-07
-9.005933e-08
-1.853557e-07
-8.886229e-09
2.630913e-08
4.863762e-09
-7.922266e-09
-1.77542e-07
-1.052894e-07
-5.265464e-08
5.23732e-08
-2.327361e-07
3.981856e-09
-4.598479e-08
-3.811001e-08
-2.16999e-07
-5.792649e-08
1.007962e-08
-6.487815e-07
-4.912538e-07
7.854003e-08
1.15316e-07
-3.311764e-07
-4.265072e-07
-4.441174e-07
-7.883246e-07
-1.321255e-07
1.772781e-08
2.08315e-09
-3.664669e-08
-9.750282e-08
2.231033e-08
-4.65162e-09
-4.414376e-08
-4.216204e-09
-6.941287e-08
3.724009e-08
-4.779756e-08
-1.47629e-07
6.740403e-09
-2.784372e-08
-1.527676e-07
-3.97478e-07
-1.291579e-07
-1.316288e-07
-7.305505e-08
6.922233e-08
-1.225818e-07
-8.286853e-07
1.977159e-08
4.331771e-08
8.892498e-09
-1.063717e-07
1.377023e-07
-4.91379e-07
-4.074695e-07
3.525795e-08
3.418424e-08
1.915425e-08
-7.44738e-08
5.768339e-08
2.073105e-08
-4.809562e-07
6.897949e-08
2.490623e-08
-1.894393e-08
-1.399444e-07
-1.190237e-07
-6.663563e-08
-2.666168e-08
-3.132874e-08
-3.273437e-08
2.349494e-08
3.423665e-08
-8.153346e-09
5.635006e-08
1.435029e-08
6.568632e-08
5.113404e-08
3.917238e-08
3.436319e-08
1.324592e-08
-2.033089e-08
1.832868e-08
-2.014797e-07
-4.417722e-08
-5.384246e-07
2.47837e-09
1.05422e-07
-5.271869e-07
-2.56091e-07
-1.301512e-07
1.256331e-07
1.096324e-07
-2.542857e-07
-3.305185e-07
6.302895e-07
-7.826684e-08
-1.779414e-08
-6.797051e-09
-1.818992e-07
7.783243e-09
1.595583e-08
-9.294368e-09
-8.830141e-08
-3.300759e-07
-3.093197e-07
-1.641594e-07
-5.617305e-07
-3.243765e-07
-4.00745e-07
1.806094e-08
4.913206e-07
-7.264069e-08
-7.274153e-08
-1.155471e-06
-1.405797e-08
-6.062592e-08
-1.442175e-07
-6.9925e-08
-5.217045e-08
4.362909e-08
9.260177e-08
-2.646715e-08
-3.627161e-08
7.602106e-08
-4.751129e-07
-4.312056e-07
-5.384483e-07
4.028982e-08
4.98439e-08
4.053081e-08
1.199e-08
3.108976e-08
8.157049e-09
-1.707121e-07
-3.016833e-07
-3.400437e-07
-3.843228e-07
1.144074e-07
7.911462e-08
-2.123805e-07
-5.940245e-08
-5.732922e-08
-6.531382e-08
3.355203e-08
-1.616739e-08
-1.139338e-08
6.884388e-08
-6.054685e-09
-7.185207e-08
-8.53374e-09
-4.647367e-08
-5.986216e-08
1.445999e-07
-2.216379e-09
-1.497761e-07
2.426604e-08
-1.158487e-08
-1.846313e-08
-1.10618e-08
1.526167e-08
-1.096928e-06
-8.139313e-07
4.630427e-09
-3.054336e-07
-2.378479e-07
4.584807e-08
6.283447e-08
-9.627287e-08
-1.458796e-07
-1.124995e-07
-1.301099e-07
8.760017e-08
-9.908007e-08
-4.706805e-07
-2.794778e-07
-2.854559e-07
-1.235667e-07
-2.102393e-08
-1.42017e-07
-6.598453e-08
9.868293e-08
5.952925e-08
-2.110827e-07
7.583457e-08
5.910949e-08
-3.541902e-08
-1.597558e-08
-2.42615e-08
-4.983003e-07
-3.404135e-08
-6.469431e-08
-2.797485e-08
1.526434e-08
-2.048832e-07
-1.797727e-07
-1.987548e-07
-1.113821e-07
-1.254707e-07
-4.225532e-07
8.568653e-08
1.656383e-08
7.776868e-08
-4.443699e-08
-4.020376e-08
-3.018508e-08
-5.089773e-08
-7.669594e-08
-1.099602e-07
-8.381371e-08
-7.974853e-08
-4.772139e-08
-7.098304e-08
-6.943293e-08
-5.342144e-08
-6.815009e-08
-2.314747e-08
-7.824466e-08
-4.745572e-08
-7.673162e-08
-4.628363e-08
-6.740068e-08
-5.901208e-08
-2.493035e-08
-5.622543e-08
-6.949278e-08
-9.535797e-08
-7.079467e-08
-1.291345e-07
-8.331385e-07
-4.358572e-07
-6.547025e-07
1.812311e-09
-2.86298e-07
-5.949991e-10
-6.216541e-08
-2.151003e-08
7.602964e-08
2.414559e-07
2.401487e-07
-1.742513e-07
2.150335e-07
5.034827e-08
6.848304e-09
5.97328e-08
1.287408e-08
-4.50284e-08
-9.15423e-08
-3.771822e-08
-4.17304e-08
-1.11013e-07
-9.120938e-08
-7.36663e-08
-1.501048e-08
-3.517283e-09
3.684082e-08
-3.431334e-09
3.349963e-08
9.447866e-08
-3.237096e-07
-2.88336e-07
-7.120371e-07
-6.729113e-07
-7.204697e-07
6.367587e-08
-5.312964e-07
1.055226e-07
-5.82523e-07
-2.839125e-07
-4.93455e-07
-3.545944e-07
-3.370207e-07
-3.164073e-07
2.90096e-09
6.021908e-10
-3.643495e-07
-6.622749e-07
-6.078642e-07
-3.37108e-07
-6.657632e-07
-6.228024e-07
-7.293231e-07
-6.958873e-07
-5.288236e-07
-1.649531e-08
-7.395974e-08
-6.785369e-07
-2.441527e-07
-8.997353e-08
-6.373373e-07
-3.507725e-07
-5.15931e-07
-8.04243e-07
1.908815e-07
1.065343e-07
-2.210966e-07
-1.875e-07
-1.625134e-07
-2.371713e-07
-5.429083e-08
-6.765586e-07
-5.473721e-07
-2.63296e-07
-4.176059e-08
-2.092211e-08
-1.75654e-08
-5.747443e-08
7.632867e-08
1.504027e-08
-4.776803e-07
-3.248974e-07
-5.041383e-07
-1.428702e-07
-2.471963e-08
4.98879e-08
1.509107e-07
1.296586e-07
-3.755839e-08
-6.514391e-08
-8.140546e-08
-1.643003e-07
-1.897133e-07
-2.192361e-07
1.628361e-07
-3.08232e-08
-4.703272e-09
-3.895017e-08
-6.32967e-08
-5.409672e-08
5.854169e-08
-3.465679e-08
2.712888e-08
7.392661e-08
-9.089913e-08
-1.715602e-08
-1.622174e-07
-1.007754e-07
-6.034804e-08
2.99146e-08
-3.079009e-07
5.659648e-08
-2.339633e-07
-6.400116e-08
1.7505e-08
-5.160523e-07
2.760179e-07
-7.924527e-08
-1.671649e-08
-3.596074e-08
1.054075e-07
-5.918841e-08
2.555349e-08
4.231521e-08
2.154618e-08
2.546641e-08
4.793768e-10
-1.381103e-08
1.009336e-07
-1.743396e-07
2.206049e-08
1.538566e-08
1.199869e-08
3.526759e-07
-5.850383e-07
-4.93379e-09
-2.363231e-08
2.759614e-08
5.030185e-08
4.637571e-08
5.333287e-08
8.079991e-08
-6.492889e-07
-5.735641e-07
7.30103e-08
8.188315e-08
-5.424752e-08
-8.408606e-08
7.026908e-09
-7.842027e-08
8.97505e-08
-5.97566e-07
-7.049394e-07
-5.272915e-07
-4.066702e-08
-5.187255e-07
-1.670674e-07
-8.824714e-08
-1.536893e-07
-7.802225e-08
-5.510359e-08
-4.76357e-08
-6.531939e-08
-5.455387e-08
-7.444849e-08
-8.387724e-08
-3.182506e-08
-5.039365e-08
-3.763631e-08
-5.774035e-08
-1.995443e-08
-4.303447e-08
-1.231178e-07
-2.637579e-08
-1.066486e-07
-9.79106e-08
-1.014102e-07
-5.253817e-08
-4.473237e-08
-4.105402e-08
-1.865884e-08
-7.788718e-08
-8.278145e-08
-1.045463e-07
-8.512802e-08
-2.586569e-08
-3.260849e-08
-6.142857e-08
-6.272314e-08
-2.091442e-07
-1.09055e-07
-5.669261e-08
-6.547199e-08
-5.286127e-08
-3.747265e-08
-2.216333e-08
4.949385e-08
-8.371766e-08
-5.807669e-08
1.044665e-07
-7.142671e-09
-2.574151e-08
-9.308781e-08
-3.321954e-08
-3.36804e-08
-3.798223e-07
-3.764322e-07
-7.100358e-07
-1.900671e-07
-3.850763e-07
-7.188487e-08
-1.755856e-08
-4.55127e-07
-1.678467e-07
-2.030775e-07
7.831962e-08
2.019137e-09
-2.134213e-08
8.045633e-08
-1.523645e-08
-1.102255e-08
3.499913e-09
-2.386933e-08
-1.525547e-08
3.639073e-08
-7.127692e-08
-4.655662e-08
-4.078363e-07
-9.102431e-09
5.439473e-08
7.057128e-08
-1.138836e-07
-1.064346e-07
6.541781e-08
-2.316574e-07
-3.745331e-07
-1.604613e-07
4.697352e-08
-5.351783e-08
-7.491262e-08
-5.393223e-07
-4.320861e-07
2.945257e-09
1.475037e-07
1.190572e-08
2.530727e-08
-9.294411e-07
-1.844989e-07
-1.704848e-07
-2.846041e-07
-9.627088e-08
-1.506247e-07
-3.430163e-07
-2.092803e-07
7.290195e-09
-1.423176e-07
-5.577257e-07
-2.838769e-08
-2.460214e-08
-3.01606e-07
-1.396095e-07
1.125717e-07
-2.207165e-07
-3.217041e-07
9.192456e-08
-3.056125e-07
-6.416571e-07
-6.496651e-07
-5.862332e-07
2.706172e-08
-1.020608e-07
-6.282914e-08
-1.03803e-07
-1.921387e-07
5.607524e-08
-7.654964e-07
-1.60698e-07
-2.647066e-07
-8.561733e-09
2.845099e-07
-5.379978e-08
-2.293341e-07
-4.759349e-07
-5.661293e-08
-3.111786e-07
-4.232281e-07
-2.860579e-10
-4.013665e-08
-2.388145e-08
6.368969e-08
5.263735e-08
7.508959e-08
3.906271e-08
2.150158e-07
6.87373e-08
-5.584821e-08
1.674031e-08
-1.886631e-07
-1.615181e-07
-1.873392e-07
-4.27814e-08
1.486169e-09
8.570906e-08
8.34225e-08
3.220737e-09
1.908614e-09
-6.97041e-08
-2.995834e-08
4.725792e-09
-4.054163e-08
1.078723e-08
-1.043837e-08
1.899178e-08
1.002227e-07
8.046528e-08
8.316933e-08
-5.494896e-08
-9.04244e-08
-2.834513e-07
-2.110643e-07
7.221943e-08
2.322504e-07
-1.447559e-08
-1.823776e-08
-6.632522e-09
-2.87643e-08
-7.018888e-09
-3.325041e-08
-6.791419e-07
1.151784e-07
2.391126e-08
-2.346826e-07
-7.877068e-09
2.513714e-08
1.621749e-08
-4.955331e-07
-1.436433e-07
-9.016604e-07
-8.014599e-07
-7.147757e-07
-6.547829e-07
-2.301429e-08
2.71916e-08
-6.009002e-08
2.0817e-08
-3.883837e-07
-3.070514e-07
-2.611726e-07
-4.296429e-07
-1.216595e-08
-2.074234e-08
-9.470143e-09
-4.771201e-08
1.025217e-09
3.975647e-08
-4.817108e-08
1.104263e-08
-6.088421e-08
2.164159e-08
-1.784867e-07
-2.689771e-07
-1.028651e-07
2.496422e-08
-7.544867e-08
-7.087049e-09
4.132567e-09
-2.064151e-08
1.142748e-07
2.650999e-08
-2.541104e-07
-1.980345e-07
-2.524743e-07
-2.910166e-08
-1.148865e-08
-4.442478e-08
-2.643562e-08
-4.864194e-07
-8.66422e-08
-9.727362e-08
-8.813879e-08
-1.015301e-09
-2.591743e-08
1.233936e-08
7.351673e-08
-1.889888e-07
-1.950354e-07
-1.535746e-08
-3.168932e-09
-2.928464e-07
-4.43535e-07
-1.447102e-07
-5.998028e-08
-5.425552e-07
6.46893e-09
-3.155316e-08
4.726976e-09
-4.945572e-09
-5.58299e-08
2.480837e-08
-2.143391e-08
6.272219e-09
1.019589e-08
3.401972e-08
-2.70256e-07
-1.724474e-08
-1.234141e-08
-3.007861e-07
-3.223915e-07
1.397547e-08
9.735877e-09
-6.502392e-07
-1.136146e-07
-9.015904e-08
-9.971918e-07
-8.282846e-07
-6.304616e-07
-5.921788e-07
-3.668895e-07
-3.535499e-07
-3.349261e-07
-2.899494e-07
-2.605486e-07
-2.503338e-07
-3.479095e-07
-3.685577e-07
-7.95301e-07
-7.463671e-07
-6.115304e-07
-5.94595e-07
-6.748766e-07
-7.081025e-07
-6.981616e-07
-5.620064e-07
-1.49148e-07
-2.578961e-07
-2.626087e-07
-2.667942e-07
-5.570905e-08
-6.319051e-07
-6.320755e-07
-3.478118e-07
-2.779025e-07
-3.146298e-07
-1.554517e-07
-9.767483e-08
-1.259959e-07
-1.024803e-07
-1.14361e-07
2.848806e-08
2.03846e-08
3.503634e-08
1.987703e-07
-2.991125e-07
-3.338452e-07
-2.064202e-08
6.226419e-08
4.737546e-08
-5.119232e-08
-4.057278e-08
-1.399643e-07
-8.933366e-08
-5.19503e-07
-4.538449e-07
5.541129e-09
6.869966e-09
2.06885e-08
3.957336e-08
4.28886e-08
-6.035689e-07
-1.790661e-07
-1.943493e-07
-2.575154e-07
-2.365607e-07
2.307694e-08
-3.688417e-08
-3.530842e-08
2.649864e-08
2.606103e-08
-1.70411e-07
3.249213e-08
3.576778e-08
6.451109e-08
7.758561e-08
-2.425252e-09
2.034344e-08
2.978624e-08
2.317924e-08
-9.56813e-10
3.268601e-08
-3.137289e-08
-2.151195e-08
-3.535556e-08
-4.105744e-08
-5.426835e-08
2.189976e-08
3.074013e-08
-4.44642e-07
-2.802371e-07
1.152115e-07
-4.405785e-08
9.580538e-09
-8.451975e-08
-1.129861e-07
-1.424653e-07
-1.560313e-07
1.997809e-08
-4.277919e-07
-5.736893e-07
9.528556e-08
7.579784e-08
-8.441697e-07
-8.683719e-07
-2.181133e-07
-8.92712e-08
-6.890504e-08
-1.959638e-08
4.262439e-08
8.890347e-08
7.436742e-08
-6.740773e-08