/*--------------------------------*- C++ -*----------------------------------*\
| =========                 |                                                 |
| \\      /  F ield         | OpenFOAM: The Open Source CFD Toolbox           |
|  \\    /   O peration     | Version:  2406                                  |
|   \\  /    A nd           | Website:  www.openfoam.com                      |
|    \\/     M anipulation  |                                                 |
\*---------------------------------------------------------------------------*/
FoamFile
{
    version     2.0;
    format      ascii;
    arch        "LSB;label=32;scalar=64";
    class       surfaceScalarField;
    location    "3.44";
    object      phi;
}
// * * * * * * * * * * * * * * * * * * * * * * * * * * * * * * * * * * * * * //

dimensions      [0 3 -1 0 0 0 0];

oriented        oriented;

internalField   nonuniform List<scalar> 
23794
(
0.004960332
-0.004108136
-0.000852196
0.005596414
-0.000636082
0.005922155
-0.0003257407
0.005913733
8.42209e-06
0.005334801
0.0005789316
0.003932586
0.001402215
0.001778411
0.002154175
-0.0003369455
0.002115357
-0.001282697
0.0009457514
-0.0005682991
-0.0007143978
0.0009018188
-0.001470118
0.00202968
-0.001127861
0.002432055
-0.0004023746
0.002463087
-3.103201e-05
0.002267002
0.0001960848
0.001995904
0.0002710982
0.0009259729
0.001069931
-0.000897504
0.001823477
-0.002609681
0.001712177
-0.003450382
0.0008407011
-0.002808782
-0.0006415999
-0.0003773088
-0.002431474
0.001915058
-0.002292366
0.003099326
-0.001184269
0.00367714
-0.0005778138
0.004665173
-0.0009880331
0.006843856
-0.002178683
0.01007589
-0.00323203
0.01141498
-0.001339091
0.007012084
0.004402893
-0.001727893
0.008739976
-0.00455466
0.002826768
-0.0006021928
-0.003952468
0.00325298
-0.003855172
0.004708854
-0.001455875
0.004054103
0.0006547511
0.001893367
0.002160736
-0.002292709
0.004186076
-0.007505429
0.005212719
-0.01123838
0.003732954
-0.01315798
0.001919601
-0.014139
0.0009810216
-0.01471262
0.0005736143
-0.01507711
0.0003644876
-0.01531421
0.0002371039
-0.01536476
5.055418e-05
-0.01533609
-2.867473e-05
-0.0152698
-6.628971e-05
-0.01516077
-0.0001090345
-0.01503845
-0.0001223138
-0.0148596
-0.0001788497
-0.01464289
-0.000216712
-0.01436951
-0.0002733756
-0.01407424
-0.0002952763
-0.01376328
-0.0003109603
-0.01339991
-0.0003633694
-0.01301889
-0.0003810178
-0.01263093
-0.0003879602
-0.01217972
-0.0004512083
-0.01170713
-0.000472593
-0.01121087
-0.0004962545
-0.01070898
-0.0005018932
-0.01018668
-0.0005223023
-0.00961595
-0.0005707291
-0.009054048
-0.000561902
-0.008451659
-0.000602389
-0.007831891
-0.0006197684
-0.007207349
-0.0006245416
-0.006575437
-0.0006319126
-0.005912779
-0.0006626571
-0.005249067
-0.0006637126
-0.004577666
-0.0006714004
-0.00389284
-0.0006848268
-0.003209947
-0.0006828928
-0.002545076
-0.0006648712
-0.001843858
-0.0007012178
-0.001168806
-0.0006750515
-0.0005291302
-0.0006396761
0.0001271591
-0.0006562893
0.0008994796
-0.0007723205
0.001642872
-0.0007433928
0.002362697
-0.0007198251
0.003067197
-0.0007044998
0.003752864
-0.0006856664
0.004435756
-0.0006828922
0.005096719
-0.000660963
0.005768246
-0.0006715278
0.006418847
-0.0006506002
0.007033345
-0.0006144987
0.007651247
-0.0006179012
0.00825603
-0.0006047836
0.008837105
-0.0005810748
0.009413545
-0.0005764402
0.009975367
-0.0005618217
0.01048324
-0.0005078728
0.01098542
-0.0005021803
0.0114714
-0.0004859831
0.01191636
-0.0004449601
0.01236016
-0.0004437939
0.0127512
-0.0003910413
0.01311417
-0.0003629721
0.01343713
-0.0003229584
0.01371612
-0.0002789874
0.01398827
-0.0002721531
0.01422144
-0.0002331667
0.01441347
-0.0001920383
0.01456067
-0.0001471972
0.01466246
-0.0001017886
0.01473071
-6.825335e-05
0.01472657
4.143146e-06
0.01466955
5.701735e-05
0.01449995
0.0001696045
0.01413674
0.0003632064
0.01357126
0.0005654836
0.01272603
0.0008452317
0.01132202
0.001404005
0.008688399
0.002633622
0.004441446
0.004246953
0.0007625566
0.003678889
-0.0004689061
0.001231463
-0.003869534
0.003400628
-0.00941498
0.005545446
-0.009274656
-0.0001403236
-0.005383389
-0.003891268
-0.002372945
-0.003010444
0.000744926
-0.003117871
0.004522925
-0.003777999
0.004924736
-0.0004018114
-0.003766046
0.008690782
-0.01027384
0.006507789
-0.009564358
-0.000709477
-0.006586241
-0.002978118
-0.003960663
-0.002625578
-0.002109194
-0.001851468
8.608053e-05
-0.002195275
0.002234152
-0.002148071
0.002317341
-8.3189e-05
0.001304064
0.001013276
0.0004458511
0.0008582132
0.0001756967
0.0002701544
0.001370395
-0.001194698
0.002608051
-0.001237656
0.003379524
-0.000771473
0.00393181
-0.0005522861
0.003247935
0.0006838753
0.0008443159
0.002403619
-0.00100268
0.001846996
-0.001614284
0.0006116038
-0.001003203
-0.0006110807
0.0005759294
-0.001579133
0.001858272
-0.001282342
0.002765291
-0.0009070191
0.002814357
-4.906596e-05
0.002539317
0.0002750403
0.002704599
-0.000165282
0.003289088
-0.000584489
-0.0008190485
0.006149455
-0.004973205
-0.002028446
0.007064723
-0.00155135
0.007558835
-0.0008198531
0.007792281
-0.0002250237
0.007796771
0.0005744413
0.007253024
0.001945962
0.005524274
0.003882924
0.002590631
0.005049
0.0003504945
0.003185888
0.000310814
-0.0006747173
0.001494129
-0.002653432
0.002610647
-0.002244379
0.002676261
-0.0004679894
0.002270744
0.0003744852
0.002250663
0.0002161658
0.002546405
-2.464332e-05
0.001851724
0.001764612
-0.000446953
0.004122154
-0.003840717
0.005105942
-0.005509276
0.00250926
-0.003986545
-0.002164331
-0.0006003684
-0.00581765
0.001933726
-0.004826461
0.00314177
-0.002392313
0.003693274
-0.001129318
0.004693777
-0.001988536
0.006910597
-0.004395503
0.01031217
-0.006633601
0.01254144
-0.003568366
0.01022826
0.00671608
0.0008904442
0.01807779
-0.004877724
0.008594936
-0.003650626
-0.005179566
-0.002442293
-0.005063505
-0.0008513271
-0.003046841
-0.001961568
0.001764992
-0.007815121
0.008014289
-0.01515123
0.01152219
-0.02009812
0.01015961
-0.02186168
0.005496512
-0.02219797
0.002255895
-0.02223191
0.00101496
-0.02218277
0.0005244759
-0.02209429
0.0002760041
-0.0219842
0.0001270102
-0.02177229
-0.0001613558
-0.02154612
-0.0002548369
-0.02130174
-0.0003106688
-0.02101314
-0.0003976351
-0.02071227
-0.000423191
-0.02035262
-0.0005384924
-0.01995571
-0.0006136266
-0.01949734
-0.0007317419
-0.01901594
-0.0007766758
-0.01852483
-0.0008020762
-0.01797707
-0.0009111307
-0.01740748
-0.0009506081
-0.01683516
-0.0009602723
-0.01619016
-0.001096213
-0.01552506
-0.001137692
-0.01483259
-0.001188729
-0.01413302
-0.001201456
-0.01341564
-0.001239681
-0.01264069
-0.001345688
-0.0118773
-0.001325292
-0.01107201
-0.001407677
-0.01024437
-0.001447407
-0.009414438
-0.001454472
-0.00858021
-0.00146614
-0.007708453
-0.001534414
-0.006834457
-0.001537709
-0.005954079
-0.001551778
-0.005058951
-0.001579955
-0.00416825
-0.001573594
-0.00329693
-0.001536192
-0.00238842
-0.001609728
-0.001509669
-0.001553803
-0.000670023
-0.001479322
0.0001895678
-0.00151588
0.0011846
-0.001767353
0.002148396
-0.001707188
0.003085812
-0.001657242
0.004002843
-0.00162153
0.004899857
-0.00158268
0.005795104
-0.001578139
0.006665202
-0.001531062
0.007547555
-0.00155388
0.008406828
-0.001509873
0.009222477
-0.001430148
0.01004425
-0.001439677
0.01085501
-0.001415541
0.01163634
-0.001362409
0.01241306
-0.001353155
0.01317757
-0.001326335
0.01387855
-0.001208853
0.01457726
-0.001200892
0.01525803
-0.001166746
0.01589304
-0.001079976
0.01652898
-0.001079729
0.01710324
-0.0009652983
0.01765339
-0.0009131233
0.01815898
-0.0008285498
0.01861649
-0.0007364988
0.01907345
-0.000729114
0.01948926
-0.0006489753
0.01986053
-0.0005633097
0.02018639
-0.0004730604
0.02046633
-0.0003817217
0.02071334
-0.0003152632
0.02089936
-0.0001818758
0.02109228
-0.0001359108
0.02125948
2.410415e-06
0.02133021
0.0002924763
0.02133092
0.000564772
0.0212477
0.0009284528
0.02097336
0.001678346
0.01995748
0.003649505
0.01685083
0.007353596
0.01055051
0.009979211
0.002004856
0.009777118
-0.005284002
0.01068949
-0.007117396
0.00737884
-0.004197632
-0.003060088
-0.0007759572
-0.007312943
0.001550976
-0.005337377
0.0034979
-0.005064794
0.006882644
-0.007162743
0.004035082
0.002445751
-0.007903064
0.02062893
-0.01296879
0.01157352
-0.01071428
-0.002963984
-0.007412635
-0.006279766
-0.004458259
-0.005579954
-0.002428737
-0.00388099
-0.0001669476
-0.004457064
0.002829276
-0.005144295
0.004414035
-0.001667948
0.002929025
0.002498286
0.0004935858
0.003293653
8.246992e-05
0.0006812703
0.001742718
-0.002854946
0.003287281
-0.002782219
0.004282647
-0.001766839
0.005022509
-0.001292148
0.004953945
0.0007524397
0.002465176
0.004892387
-0.001124986
0.005437158
-0.002300136
0.001786754
-0.0009074659
-0.002003751
0.0007480014
-0.0032346
0.001961869
-0.00249621
0.003163236
-0.002108386
0.00383265
-0.00071848
0.003881562
0.0002261279
0.003720859
-4.579003e-06
0.00401112
-0.0008747498
-0.001781134
0.007413465
-0.005920512
-0.003521399
0.008464946
-0.002602831
0.009010307
-0.001365214
0.009205572
-0.0004202883
0.009089655
0.0006903579
0.008724533
0.002311084
0.007863959
0.004743498
0.005820803
0.007092157
0.003374733
0.005631958
0.002088985
0.0006110308
0.002271316
-0.002835764
0.002687819
-0.002660882
0.001921155
0.0002986742
0.001713826
0.0005818143
0.002716501
-0.0007865089
0.003364244
-0.0006723865
0.002582389
0.002546467
0.0001050955
0.006599448
-0.003896561
0.009107598
-0.006205554
0.004818254
-0.004522909
-0.003846977
-0.001133864
-0.009206695
0.0009193895
-0.006879715
0.001811831
-0.003284754
0.002022336
-0.001339823
0.002659016
-0.002625216
0.004835209
-0.006571696
0.008812366
-0.01061076
0.0110494
-0.0058054
0.009658313
0.008107165
0.002279428
0.02545667
-0.006144533
0.0170189
-0.01114808
-0.0001760181
-0.01420507
-0.002006514
-0.01524342
-0.002008489
-0.01750577
0.004027342
-0.02187618
0.01238469
-0.02560334
0.01524935
-0.02643239
0.01098866
-0.02608682
0.00515094
-0.02600988
0.002178952
-0.02606669
0.001071771
-0.0260983
0.0005560931
-0.02608465
0.0002623481
-0.02603562
7.798218e-05
-0.02582807
-0.0003689115
-0.02557482
-0.0005080811
-0.02529579
-0.0005896953
-0.02496398
-0.0007294449
-0.02461966
-0.0007675154
-0.02420215
-0.0009559997
-0.02374127
-0.001074509
-0.02320532
-0.001267697
-0.02264136
-0.00134063
-0.02206678
-0.001376654
-0.0214215
-0.001556418
-0.02075007
-0.001622036
-0.0200768
-0.001633543
-0.01931353
-0.00185948
-0.01852635
-0.001924874
-0.01770597
-0.002009107
-0.01687676
-0.00203067
-0.01602612
-0.002090314
-0.01510425
-0.002267559
-0.01419771
-0.00223183
-0.01323818
-0.002367207
-0.01225207
-0.002433522
-0.01126243
-0.002444116
-0.01026714
-0.002461426
-0.009226119
-0.002575435
-0.008181907
-0.002581921
-0.00712884
-0.002604845
-0.006058022
-0.002650772
-0.004990658
-0.002640958
-0.00394441
-0.00258244
-0.002854044
-0.002700093
-0.001797133
-0.002610714
-0.0007855847
-0.00249087
0.0002479073
-0.002549372
0.001434182
-0.002953627
0.002586361
-0.002859368
0.003707988
-0.002778868
0.004803988
-0.002717529
0.005875809
-0.002654502
0.006944819
-0.002647149
0.007982835
-0.002569077
0.009035256
-0.002606302
0.010059
-0.002533621
0.01103031
-0.002401452
0.01200884
-0.002418211
0.0129731
-0.002379794
0.01390174
-0.002291048
0.01482498
-0.002276396
0.01573264
-0.002234004
0.01656334
-0.002039549
0.01739187
-0.002029417
0.01819804
-0.001972916
0.01894806
-0.001830003
0.01970095
-0.001832615
0.02037752
-0.001641866
0.02102617
-0.00156178
0.02162031
-0.00142269
0.02215495
-0.001271138
0.02269026
-0.001264423
0.02317453
-0.001133245
0.02360624
-0.0009950168
0.02398265
-0.0008494741
0.02430366
-0.0007027265
0.02458629
-0.0005979003
0.02479037
-0.000385955
0.02497945
-0.0003249889
0.02510568
-0.0001238212
0.02510218
0.0002959774
0.02502285
0.0006441054
0.02491259
0.001038707
0.02481347
0.001777469
0.02487066
0.003592322
0.02461902
0.007605236
0.02124444
0.01335379
0.01047582
0.02054574
-0.001169089
0.02233439
-0.001375375
0.007585126
0.0037668
-0.008202263
0.007274781
-0.01082092
0.008705719
-0.006768316
0.008628292
-0.004987367
0.008793106
-0.007327557
0.001963623
0.009275233
-0.009906261
0.03249881
-0.01388276
0.01555001
-0.01165015
-0.005196588
-0.007716242
-0.01021368
-0.004445999
-0.008850197
-0.002437057
-0.005889932
-0.0003594854
-0.006534636
0.002824447
-0.008328228
0.005384976
-0.004228476
0.003795255
0.004088006
0.0006317298
0.006457178
0.0001328872
0.001180113
0.001940724
-0.004662783
0.003890607
-0.004732102
0.005126221
-0.003002453
0.005949474
-0.0021154
0.006052953
0.0006489602
0.004015778
0.006929563
-0.0005768631
0.0100298
-0.002808973
0.004018863
-0.001118384
-0.003694339
0.0005589742
-0.004911958
0.001596855
-0.003534091
0.002854888
-0.003366418
0.003864187
-0.00172778
0.004074223
1.609236e-05
0.003846999
0.0002226452
0.004460163
-0.001487914
-0.003241483
0.008788238
-0.006957675
-0.005351962
0.01003794
-0.00385253
0.01068456
-0.002011833
0.01093857
-0.0006743074
0.01076032
0.0008686125
0.01014925
0.002922156
0.009375252
0.005517495
0.008114898
0.00835251
0.006013075
0.007733781
0.003930692
0.002693414
0.002988145
-0.001893218
0.002290625
-0.001963362
0.001314587
0.001274712
0.001867331
2.907072e-05
0.003391629
-0.002310808
0.004170621
-0.001451378
0.003256009
0.003461079
0.0006600817
0.009195375
-0.003480293
0.01324797
-0.006272032
0.007609993
-0.005089078
-0.005029931
-0.002556751
-0.01173902
-0.001421402
-0.008015063
-0.001375855
-0.003330302
-0.002081753
-0.0006339244
-0.001784928
-0.002922041
0.00121143
-0.009568054
0.005922317
-0.01532164
0.008499007
-0.008382089
0.007020513
0.009585659
0.0008091148
0.03166807
-0.01152184
0.02934985
-0.02234531
0.01064746
-0.02758032
0.00322849
-0.02958201
-6.792377e-06
-0.03119048
0.005635813
-0.03228188
0.01347609
-0.03204143
0.0150089
-0.03121798
0.01016521
-0.03114149
0.005074447
-0.03141702
0.002454486
-0.03157912
0.001233865
-0.03163612
0.0006130932
-0.03160697
0.0002332013
-0.03152792
-1.069736e-06
-0.03124763
-0.0006492059
-0.03091987
-0.0008358396
-0.03056072
-0.0009488385
-0.03013903
-0.001151134
-0.02970614
-0.001200408
-0.02918735
-0.001474795
-0.02861821
-0.001643644
-0.02795992
-0.00192599
-0.0272688
-0.002031745
-0.02656662
-0.002078837
-0.02578154
-0.002341496
-0.02496537
-0.002438204
-0.02414778
-0.002451137
-0.02322584
-0.002781421
-0.02227337
-0.00287734
-0.02128233
-0.003000148
-0.0202822
-0.0030308
-0.01925776
-0.003114757
-0.01814659
-0.003378726
-0.0170567
-0.003321727
-0.01590224
-0.00352166
-0.01471767
-0.003618091
-0.01352801
-0.003633777
-0.01233262
-0.003656816
-0.01108272
-0.00382534
-0.009829121
-0.003835519
-0.008564498
-0.003869469
-0.007279832
-0.003935439
-0.005996159
-0.00392463
-0.004737312
-0.003841287
-0.003422533
-0.004014872
-0.002144161
-0.003889085
-0.0009176117
-0.00371742
0.0003288308
-0.003795815
0.001745186
-0.004369983
0.003124142
-0.004238323
0.004469612
-0.004124339
0.005781988
-0.004029905
0.007064052
-0.003936566
0.008342466
-0.003925563
0.009583932
-0.003810543
0.01084555
-0.003867919
0.01207083
-0.003758901
0.01323639
-0.003567016
0.01441228
-0.003594095
0.01556935
-0.00353687
0.01668705
-0.003408745
0.01780019
-0.003389533
0.01889201
-0.003325822
0.01989508
-0.003042622
0.02089647
-0.003030806
0.02187003
-0.002946478
0.02277855
-0.002738526
0.02369119
-0.002745249
0.02451325
-0.00246393
0.025302
-0.002350526
0.0260265
-0.002147194
0.02668313
-0.001927773
0.02734064
-0.001921932
0.0279371
-0.001729705
0.0284735
-0.001531414
0.02894291
-0.001318883
0.02935072
-0.001110531
0.02971355
-0.0009607319
0.02998359
-0.0006559937
0.03024044
-0.0005818463
0.03041949
-0.0003028698
0.03042481
0.0002906595
0.03031048
0.0007584399
0.03009583
0.001253348
0.02976921
0.002104092
0.02940649
0.003955046
0.02951983
0.00749189
0.02928757
0.01358605
0.02305236
0.02678095
0.0137366
0.03165015
0.01081355
0.01050818
0.0142283
-0.01161702
0.01711291
-0.01370553
0.01746241
-0.007117818
0.01516168
-0.002686633
0.01104997
-0.003215849
0.0004755935
0.01984961
-0.01106293
0.04403734
-0.01458581
0.01907289
-0.01227391
-0.007508491
-0.007695405
-0.01479218
-0.004010389
-0.01253521
-0.002101435
-0.007798887
-0.0003616569
-0.008274413
0.002747236
-0.01143712
0.005868158
-0.007349398
0.004031385
0.00592478
0.0003691355
0.01011943
-9.082216e-05
0.001640071
0.001974239
-0.006727844
0.004490838
-0.007248701
0.006054363
-0.004565978
0.007142968
-0.003204005
0.007214619
0.0005773097
0.005563215
0.008580966
0.0005617728
0.01503124
-0.003062329
0.007642965
-0.001612763
-0.005143906
-1.564059e-05
-0.00650908
0.0006396565
-0.004189388
0.001764533
-0.004491294
0.003145798
-0.003109045
0.003293329
-0.0001314387
0.003241435
0.0002745388
0.004840869
-0.003087347
-0.00535829
0.01031502
-0.008148422
-0.00751856
0.01184161
-0.005379123
0.01264154
-0.002811758
0.01298111
-0.001013878
0.01278707
0.001062656
0.01198415
0.003725077
0.01087462
0.006627026
0.009677083
0.009550042
0.007791636
0.009619228
0.005273502
0.005211548
0.003368707
1.157696e-05
0.00164194
-0.0002365952
0.001177327
0.001739326
0.002701097
-0.001494699
0.004276448
-0.003886159
0.005080569
-0.002255499
0.003986667
0.004554981
0.001210465
0.01197158
-0.002935389
0.01739383
-0.006072511
0.01074711
-0.006049162
-0.005053279
-0.005338464
-0.01244972
-0.005844823
-0.007508704
-0.007176234
-0.001998891
-0.008548981
0.0007388228
-0.007907773
-0.003563249
-0.004612635
-0.01286319
-0.0001637269
-0.01977055
0.002757466
-0.01130328
0.001266691
0.01107643
-0.005886558
0.03882132
-0.01969245
0.04315574
-0.03199258
0.02294759
-0.03635616
0.007592069
-0.0382796
0.001916644
-0.03932017
0.006676387
-0.03873042
0.01288634
-0.03743176
0.01371024
-0.03685264
0.00958608
-0.03707961
0.005301425
-0.03736902
0.00274389
-0.03755486
0.001419709
-0.03766008
0.000718314
-0.03764514
0.0002182564
-0.03758703
-5.917792e-05
-0.03727358
-0.0009626527
-0.03690641
-0.001203015
-0.03650006
-0.001355185
-0.03600592
-0.001645277
-0.03551425
-0.001692074
-0.03490319
-0.002085853
-0.03423817
-0.002308669
-0.03345842
-0.002705737
-0.03264004
-0.002850126
-0.03181177
-0.002907104
-0.03087609
-0.003277177
-0.02990384
-0.003410459
-0.02893345
-0.003421522
-0.0278342
-0.003880675
-0.02669499
-0.004016552
-0.02551053
-0.004184609
-0.02431754
-0.004223781
-0.02309496
-0.004337337
-0.02176198
-0.004711713
-0.02046169
-0.004622009
-0.01907786
-0.004905496
-0.01766119
-0.00503476
-0.01623608
-0.00505889
-0.0148064
-0.005086495
-0.0133078
-0.005323937
-0.01180521
-0.005338112
-0.01028724
-0.005387434
-0.008748342
-0.005474337
-0.00720688
-0.005466092
-0.005695133
-0.005353034
-0.004108683
-0.005601322
-0.002559717
-0.005438051
-0.001068518
-0.005208619
0.0004347283
-0.005299061
0.002123918
-0.006059172
0.00377231
-0.005886715
0.005382962
-0.005734991
0.006947851
-0.005594795
0.008476009
-0.005464724
0.01000336
-0.005452916
0.01148754
-0.005294719
0.01300178
-0.005382158
0.01446633
-0.005223456
0.0158655
-0.004966181
0.01727966
-0.005008254
0.0186626
-0.004919817
0.02000323
-0.004749375
0.02134327
-0.00472957
0.02264832
-0.004630871
0.02384918
-0.004243479
0.02505018
-0.004231806
0.02621393
-0.004110232
0.02729662
-0.003821212
0.02838978
-0.003838416
0.02936852
-0.00344267
0.03030708
-0.003289081
0.03116723
-0.003007349
0.0319426
-0.002703141
0.03272216
-0.00270149
0.03342099
-0.00242854
0.03405277
-0.002163194
0.03459732
-0.001863434
0.03506706
-0.001580271
0.03548749
-0.001381155
0.03578081
-0.0009493135
0.03606492
-0.0008659581
0.0362491
-0.0004870519
0.0362246
0.0003151641
0.03606369
0.0009193508
0.03580161
0.001515419
0.03542858
0.002477123
0.03492985
0.004453785
0.03451317
0.007908569
0.0351852
0.01291402
0.0348695
0.02709665
0.03199842
0.03452123
0.02944718
0.01305942
0.02896499
-0.01113482
0.02869161
-0.01343215
0.02710466
-0.00553087
0.02274236
0.001675669
0.01434222
0.005184286
0.0003587532
0.03383308
-0.01123178
0.05562787
-0.01471785
0.02255897
-0.01199167
-0.01023467
-0.006960958
-0.0198229
-0.00296317
-0.016533
-0.001254859
-0.009507198
-1.969938e-05
-0.009509573
0.002739047
-0.01419587
0.005990878
-0.01060123
0.003683695
0.008231963
-0.0002757791
0.0140789
-0.0007343854
0.002098677
0.0018384
-0.00930063
0.005088569
-0.01049887
0.007103404
-0.006580813
0.008561371
-0.004661973
0.008492844
0.0006458366
0.007098777
0.009975033
0.002134536
0.01999548
-0.00287679
0.01265429
-0.002256585
-0.005764111
-0.0009247563
-0.007840909
-0.0008880547
-0.00422609
-0.0003387041
-0.005040645
0.00102766
-0.004475409
0.001825543
-0.0009293216
0.00306551
-0.0009654287
0.005634987
-0.005656823
-0.007871725
0.01213003
-0.00951162
-0.01013697
0.01399453
-0.007243628
0.01491597
-0.003733192
0.01530341
-0.001401324
0.01506715
0.001298919
0.01413704
0.004655187
0.01267233
0.008091741
0.01107803
0.01114433
0.008996373
0.01170089
0.006131933
0.008075988
0.003415406
0.002728104
0.001124679
0.002054132
0.001244233
0.001619772
0.003517423
-0.003767889
0.005419415
-0.005788152
0.006358394
-0.003194477
0.004937765
0.00597561
0.00175459
0.01515475
-0.002517303
0.02166572
-0.006077131
0.01430694
-0.00797387
-0.00315654
-0.01008539
-0.01033821
-0.01283493
-0.004759162
-0.01546434
0.0006305264
-0.0170864
0.002360877
-0.01637814
-0.004271505
-0.01349035
-0.01575098
-0.008762379
-0.02449853
-0.005979197
-0.01408646
-0.008616197
0.01371343
-0.01735761
0.04756274
-0.03058705
0.05638518
-0.04003648
0.03239701
-0.04257105
0.01012664
-0.04464214
0.003987736
-0.04579782
0.007832073
-0.04540891
0.01249743
-0.0446708
0.01297213
-0.04453105
0.009446333
-0.04484526
0.005615632
-0.04513981
0.003038444
-0.04532728
0.001607175
-0.04541966
0.0008106983
-0.04534082
0.0001394134
-0.0452454
-0.0001546026
-0.04484801
-0.001360039
-0.04439522
-0.00165581
-0.04388818
-0.001862222
-0.04326686
-0.002266594
-0.04267737
-0.00228156
-0.04192742
-0.002835807
-0.04112436
-0.003111724
-0.04017824
-0.003651864
-0.03918585
-0.003842515
-0.03819007
-0.003902881
-0.03705805
-0.004409195
-0.03588623
-0.004582284
-0.03472388
-0.004583873
-0.03340188
-0.005202667
-0.03202727
-0.005391168
-0.03060508
-0.0056068
-0.02917286
-0.005655996
-0.02770885
-0.005801351
-0.02610186
-0.006318706
-0.0245499
-0.006173966
-0.02288607
-0.006569324
-0.02118803
-0.006732798
-0.01948021
-0.006766715
-0.01777087
-0.006795834
-0.01597626
-0.007118548
-0.01418041
-0.007133959
-0.01235809
-0.007209757
-0.01051628
-0.007316142
-0.008661592
-0.007320783
-0.006852295
-0.007162331
-0.004941863
-0.007511755
-0.003060148
-0.007319766
-0.001243513
-0.007025253
0.0005715687
-0.007114142
0.002584749
-0.008072352
0.004555614
-0.007857581
0.006470288
-0.007649665
0.008330035
-0.007454542
0.0101541
-0.007288789
0.0119838
-0.007282612
0.01376342
-0.007074338
0.01558921
-0.007207949
0.01734143
-0.006975676
0.0190258
-0.006650553
0.02073409
-0.006716544
0.02238819
-0.00657392
0.02399702
-0.006358207
0.0256207
-0.006353245
0.02718392
-0.006194096
0.02862268
-0.005682241
0.03006893
-0.005678056
0.03146757
-0.005508867
0.03276427
-0.005117912
0.03408212
-0.005156265
0.03525991
-0.004620461
0.03639023
-0.0044194
0.03742429
-0.004041414
0.03836153
-0.003640376
0.03930948
-0.00364944
0.04015054
-0.003269605
0.04092517
-0.002937819
0.04158571
-0.002523977
0.04216512
-0.002159683
0.04268526
-0.001901292
0.04305865
-0.001322709
0.04341531
-0.00122261
0.0436697
-0.0007414433
0.04369009
0.0002947704
0.04352734
0.001082098
0.04324418
0.00179858
0.04281861
0.002902691
0.04225507
0.005017333
0.04157798
0.008585658
0.04152298
0.01296902
0.04386977
0.02474985
0.04617039
0.03222061
0.0446861
0.01454371
0.04132431
-0.007773033
0.03823641
-0.01034425
0.03500945
-0.00230391
0.02960607
0.007079053
0.01849283
0.01629753
0.002247304
0.0500786
-0.009386553
0.06726173
-0.01305486
0.02622727
-0.009926923
-0.0133626
-0.004789642
-0.02496018
-0.0009039101
-0.02041873
0.0004543416
-0.01086545
0.001119287
-0.01017452
0.003050442
-0.01612702
0.005786845
-0.01333763
0.002784619
0.01123419
-0.001392163
0.01825568
-0.001811648
0.002518162
0.001514169
-0.01262645
0.005685519
-0.01467022
0.008292432
-0.009187726
0.01023055
-0.00660009
0.009993153
0.0008832325
0.008700459
0.01126773
0.003993161
0.02470278
-0.002190916
0.01883837
-0.002877008
-0.005078018
-0.002184639
-0.008533277
-0.002563886
-0.003846844
-0.002199296
-0.005405235
-0.001033301
-0.005641404
0.001150012
-0.003112635
0.003855996
-0.003671412
0.006667597
-0.008468424
-0.01071575
0.01430139
-0.01112902
-0.01330933
0.01649933
-0.00944157
0.01746633
-0.004700192
0.01785608
-0.001791071
0.01753566
0.001619337
0.01647835
0.005712493
0.01474241
0.009827686
0.01262515
0.01326159
0.0100077
0.01431834
0.006667682
0.011416
0.003254644
0.006141143
0.0009544005
0.004354375
0.001720717
0.0008534551
0.004587017
-0.006634188
0.007039233
-0.008240368
0.008218629
-0.004373873
0.006259746
0.007934493
0.002280599
0.0191339
-0.002619362
0.02656568
-0.007048245
0.01873583
-0.0116215
0.001416712
-0.01719081
-0.00476889
-0.02233995
0.0003899738
-0.02594949
0.004240073
-0.02794153
0.004352913
-0.02770705
-0.004505981
-0.02631123
-0.01714681
-0.02330784
-0.02750192
-0.02101578
-0.01637852
-0.02477763
0.01747528
-0.03429118
0.05707629
-0.043733
0.065827
-0.0480373
0.03670132
-0.04986252
0.01195185
-0.05256972
0.006694943
-0.05400281
0.009265163
-0.05406083
0.01255545
-0.05360039
0.0125117
-0.05344626
0.009292197
-0.05370803
0.005877405
-0.05399697
0.003327384
-0.05420375
0.001813948
-0.05436334
0.0009702933
-0.0542578
3.38728e-05
-0.05422214
-0.0001902612
-0.05369608
-0.001886098
-0.05317862
-0.002173271
-0.05258843
-0.002452408
-0.0518254
-0.003029631
-0.05115591
-0.002951046
-0.05024302
-0.003748702
-0.04929942
-0.004055327
-0.04816565
-0.004785633
-0.0469691
-0.005039066
-0.04578833
-0.005083646
-0.04443611
-0.005761417
-0.0430304
-0.005987989
-0.04163526
-0.005979012
-0.04006057
-0.006777358
-0.03841448
-0.007037263
-0.03671177
-0.007309511
-0.03497606
-0.007391704
-0.03324826
-0.007529145
-0.03130143
-0.008265544
-0.02945518
-0.008020213
-0.02744687
-0.008577629
-0.02541472
-0.008764951
-0.0233737
-0.008807734
-0.02129761
-0.008871921
-0.01916669
-0.009249469
-0.01702764
-0.009273014
-0.01484478
-0.009392621
-0.01265928
-0.009501642
-0.01039465
-0.009585406
-0.008255392
-0.009301591
-0.005956828
-0.009810319
-0.003665418
-0.009611176
-0.001451128
-0.009239543
0.0007478852
-0.009313156
0.003144215
-0.01046868
0.005496764
-0.01021013
0.007744527
-0.009897428
0.009967361
-0.009677376
0.01216563
-0.009487056
0.01435806
-0.009475045
0.01649323
-0.009209507
0.01871107
-0.009425792
0.02081193
-0.009076538
0.02282833
-0.008666947
0.02488022
-0.00876844
0.0268781
-0.008571798
0.02881183
-0.008291934
0.03075028
-0.008291696
0.0326279
-0.008071715
0.03434668
-0.007401018
0.03607831
-0.007409683
0.03773485
-0.007165416
0.0393026
-0.006685658
0.04088425
-0.006737911
0.04228558
-0.006021799
0.0436519
-0.005785713
0.04487346
-0.005262981
0.0459952
-0.004762107
0.04713606
-0.004790301
0.04812307
-0.004256617
0.04906029
-0.003875037
0.04982842
-0.003292107
0.05052136
-0.002852621
0.05114904
-0.002528972
0.05156901
-0.001742688
0.05200397
-0.00165757
0.05229651
-0.001033977
0.05226878
0.0003224957
0.05206744
0.001283443
0.05172747
0.002138545
0.05126767
0.00336249
0.05067635
0.005608658
0.05016554
0.009096465
0.04967119
0.01346337
0.05193168
0.02248937
0.05561374
0.02853855
0.05451723
0.01564022
0.04993936
-0.003195165
0.04543298
-0.005837867
0.04135241
0.001776657
0.03597367
0.01245779
0.0239879
0.0282833
0.00771427
0.06635223
-0.00427376
0.07924976
-0.008042764
0.02999628
-0.004897317
-0.01650805
-0.0002044488
-0.02965305
0.003571518
-0.0241947
0.003890558
-0.01118449
0.003911211
-0.01019517
0.00422656
-0.01644237
0.005404839
-0.01451591
0.00150875
0.01513028
-0.002921587
0.02268602
-0.003334986
0.002931561
0.0009255154
-0.01688695
0.00633793
-0.02008263
0.009615515
-0.01246531
0.01218076
-0.009165335
0.01177586
0.001288132
0.0104486
0.01259499
0.006143921
0.02900746
-0.0008309056
0.0258132
-0.003186766
-0.002722158
-0.003448088
-0.008271955
-0.003817225
-0.003477706
-0.003213464
-0.006008996
-0.001671931
-0.007182937
0.001200642
-0.005985208
0.004563438
-0.007034208
0.007768393
-0.01167338
-0.01407638
0.01686868
-0.01307572
-0.01710229
0.01926905
-0.01184194
0.02028842
-0.005719563
0.02080502
-0.002307676
0.02040617
0.002018185
0.01924622
0.00687245
0.01722736
0.01184654
0.0146643
0.01582465
0.01133156
0.01765109
0.00726959
0.01547797
0.003113604
0.01029713
0.0008379126
0.006630067
0.002581528
-0.00089016
0.00634303
-0.01039569
0.009304253
-0.01120159
0.0106363
-0.005705916
0.008058624
0.01051217
0.003311296
0.02388123
-0.002757064
0.03263404
-0.008892168
0.02487093
-0.01712368
0.00964822
-0.02670653
0.004813967
-0.03376788
0.00745132
-0.03796327
0.008435461
-0.0408231
0.007212746
-0.04169622
-0.003632859
-0.04297452
-0.01586851
-0.04371944
-0.02675699
-0.04563687
-0.0144611
-0.05060987
0.02244828
-0.05653709
0.06300351
-0.05804772
0.06733763
-0.0576366
0.0362902
-0.0599479
0.01426315
-0.06298288
0.009729932
-0.06453365
0.01081592
-0.06485648
0.01287828
-0.06451477
0.01216998
-0.06436051
0.009137938
-0.06465952
0.006176418
-0.06496112
0.003628985
-0.06509144
0.001944267
-0.06534169
0.001220543
-0.06507992
-0.0002279004
-0.06500858
-0.0002616052
-0.06444633
-0.002448341
-0.06378514
-0.002834464
-0.0631432
-0.00309435
-0.06213153
-0.004041302
-0.06137761
-0.003704959
-0.06026724
-0.00485907
-0.05916522
-0.005157352
-0.05778331
-0.006167544
-0.05631708
-0.006505298
-0.05492597
-0.006474749
-0.05333649
-0.007350897
-0.0515841
-0.007740387
-0.04991878
-0.007644326
-0.04805882
-0.008637316
-0.04610467
-0.008991421
-0.04402307
-0.009391112
-0.04192035
-0.009494423
-0.03994696
-0.009502529
-0.03752292
-0.01068959
-0.0353614
-0.01018173
-0.03287577
-0.01106326
-0.03050148
-0.01113925
-0.02805173
-0.01125748
-0.02552142
-0.01140223
-0.02301414
-0.01175675
-0.02042526
-0.01186189
-0.01780131
-0.01201658
-0.01523771
-0.01206524
-0.01246893
-0.01235418
-0.009988837
-0.01178169
-0.007179484
-0.01261967
-0.004409811
-0.01238085
-0.001714556
-0.0119348
0.0009796544
-0.01200737
0.003860933
-0.01334996
0.006567788
-0.01291699
0.009213051
-0.01254269
0.01191718
-0.01238151
0.01459612
-0.01216599
0.0172371
-0.01211602
0.01976974
-0.01174215
0.02249896
-0.01215501
0.02499728
-0.01157486
0.02742332
-0.01109299