/*--------------------------------*- C++ -*----------------------------------*\
| =========                 |                                                 |
| \\      /  F ield         | OpenFOAM: The Open Source CFD Toolbox           |
|  \\    /   O peration     | Version:  2406                                  |
|   \\  /    A nd           | Website:  www.openfoam.com                      |
|    \\/     M anipulation  |                                                 |
\*---------------------------------------------------------------------------*/
FoamFile
{
    version     2.0;
    format      ascii;
    arch        "LSB;label=32;scalar=64";
    class       volVectorField;
    location    "4.66";
    object      U;
}
// * * * * * * * * * * * * * * * * * * * * * * * * * * * * * * * * * * * * * //

dimensions      [0 1 -1 0 0 0 0];

internalField   nonuniform List<vector> 
15536
(
(0.2569138 -7.222048 -9.374043e-22)
(0.4738712 -6.479331 -6.936229e-19)
(0.623064 -5.618293 -1.170325e-18)
(0.6998864 -4.701437 -9.5187e-19)
(0.7159343 -3.806884 -1.228218e-20)
(0.685009 -3.007628 6.789537e-21)
(0.6194197 -2.321892 7.593422e-21)
(0.5096905 -1.691651 -7.646167e-21)
(0.3464236 -1.0659 1.678997e-18)
(0.1900502 -0.5511284 1.618464e-18)
(0.137207 -0.3434972 0)
(0.2783312 -0.5247564 0)
(0.7103851 -1.217824 -1.449e-20)
(1.238992 -1.977037 3.73751e-18)
(1.474567 -2.222892 1.586078e-18)
(1.160428 -1.640616 -2.226645e-18)
(0.5146555 -0.7042096 6.642181e-19)
(0.0508378 -0.04566684 2.727486e-21)
(0.2302059 -0.2031311 -1.988496e-21)
(0.7079611 -0.6639696 -7.156158e-22)
(1.229676 -1.09801 0)
(2.264478 -1.859647 -1.282406e-18)
(3.004368 -2.308912 0)
(1.646246 -1.263038 -1.606669e-18)
(-0.753116 0.3730033 9.780234e-21)
(-2.724515 1.573216 -1.196438e-20)
(-5.021142 2.725533 1.140239e-20)
(-8.001299 4.015366 -6.177355e-18)
(-10.51048 5.005752 -1.172578e-17)
(-9.800528 4.605971 0)
(-1.397027 1.07725 -1.734742e-20)
(7.224754 -2.352142 -5.291765e-19)
(2.968 -1.17374 8.790151e-19)
(-2.639889 0.2935242 0)
(-5.542957 0.8708158 -3.890371e-18)
(-7.83128 1.307807 -2.341686e-20)
(-6.734085 1.176159 3.162171e-18)
(-3.274093 0.4778633 -1.37342e-18)
(0.1666213 0.02338248 1.21739e-21)
(5.507268 0.3494289 -2.999414e-19)
(9.793046 0.9080008 1.218676e-18)
(11.96041 1.515861 -2.012108e-20)
(13.06566 2.151402 1.981023e-20)
(13.67422 2.819921 0)
(14.00386 3.482592 -5.147919e-18)
(14.13991 4.119475 -5.138989e-18)
(14.09812 4.718673 0)
(13.93739 5.283337 -9.8427e-18)
(13.6806 5.812595 9.603077e-18)
(13.37838 6.31943 9.264568e-18)
(13.01837 6.786501 3.363693e-20)
(12.5965 7.209789 -8.359779e-18)
(12.12111 7.584474 0)
(11.60184 7.912068 0)
(11.04822 8.188849 6.622212e-18)
(10.45824 8.406904 6.009723e-18)
(9.85013 8.576693 3.901849e-20)
(9.230618 8.696748 4.575039e-18)
(8.587423 8.748988 7.818169e-18)
(7.933235 8.741231 3.188936e-18)
(7.276188 8.676583 2.412436e-18)
(6.629618 8.564194 -1.625357e-20)
(5.990699 8.394732 0)
(5.356961 8.161887 1.908424e-19)
(4.741761 7.881593 0)
(4.143442 7.539807 1.315352e-18)
(3.569343 7.143559 -2.857708e-20)
(3.029395 6.702912 -2.555579e-21)
(2.523221 6.215601 1.19522e-20)
(2.05536 5.686104 -4.012529e-18)
(1.631323 5.12229 -1.894045e-20)
(1.251876 4.521454 2.591872e-18)
(0.9186805 3.884815 2.823649e-18)
(0.6370763 3.22712 0)
(0.406921 2.554719 0)
(0.2319058 1.864353 3.352035e-18)
(0.1087767 1.167163 -1.448961e-22)
(0.04082404 0.4948632 8.999458e-19)
(0.02424951 -0.1592904 1.648483e-21)
(0.06183475 -0.8946799 -6.771064e-21)
(0.1481046 -1.675419 -1.673239e-18)
(0.2938847 -2.431865 0)
(0.4961883 -3.153821 2.983373e-18)
(0.7512473 -3.843575 0)
(1.057443 -4.501863 -2.484738e-18)
(1.412668 -5.128618 2.174322e-18)
(1.8161 -5.723166 1.595615e-20)
(2.264484 -6.284471 3.125408e-18)
(2.754867 -6.80377 8.023392e-21)
(3.282886 -7.278913 -1.711499e-18)
(3.845813 -7.711288 -9.344479e-19)
(4.441198 -8.095131 3.946199e-21)
(5.067413 -8.433299 7.053866e-19)
(5.715193 -8.721061 -1.546718e-18)
(6.379105 -8.954106 2.191535e-20)
(7.048634 -9.119116 6.677526e-21)
(7.729311 -9.231023 -4.059196e-18)
(8.416759 -9.289821 0)
(9.102254 -9.287363 1.132941e-17)
(9.788656 -9.234843 6.409305e-18)
(10.45593 -9.117783 1.104508e-19)
(11.10055 -8.938722 -8.086843e-18)
(11.71874 -8.700945 0)
(12.3095 -8.408695 0)
(12.87237 -8.069934 0)
(13.39849 -7.682667 0)
(13.87788 -7.248087 1.137015e-17)
(14.30762 -6.770057 1.200422e-17)
(14.68854 -6.253365 2.655965e-20)
(15.01545 -5.705365 -1.291702e-17)
(15.27024 -5.122343 -6.603776e-18)
(15.45199 -4.512794 -6.836941e-18)
(15.50353 -3.870966 5.355045e-20)
(15.39774 -3.200934 7.012427e-18)
(15.11475 -2.5136 3.622009e-18)
(14.59219 -1.823176 -2.803645e-20)
(13.65259 -1.169174 -6.874429e-21)
(11.83441 -0.5883021 4.524481e-19)
(8.281624 -0.1201161 -8.92623e-19)
(2.272955 0.1014 -2.248541e-20)
(-1.056124 0.1696567 1.62496e-20)
(2.412169 0.5516438 3.580669e-18)
(-0.1100165 -0.2473083 2.797476e-20)
(-6.812688 -2.130215 0)
(-9.767506 -2.969215 -9.599868e-18)
(-7.423771 -2.366644 -7.211265e-18)
(-4.964489 -1.792933 4.502256e-21)
(-3.524974 -1.458802 9.412191e-18)
(-2.919272 -1.324246 -8.866861e-18)
(-1.843241 -0.7979533 0)
(1.203564 0.8588432 0)
(4.605073 2.919159 -2.817617e-18)
(3.08776 1.826672 0)
(-1.875961 -1.770438 8.075024e-20)
(-4.685671 -4.02817 -1.162046e-17)
(-5.673437 -5.12732 -1.30953e-17)
(-5.836198 -5.590238 9.001998e-20)
(-4.91548 -5.010134 -2.087773e-17)
(-3.478266 -3.766424 -1.26088e-19)
(-2.02991 -2.305507 1.184105e-17)
(-0.7967093 -0.8935105 4.391204e-18)
(0.1194779 0.2770457 3.71454e-18)
(0.7878175 1.264954 3.243489e-18)
(1.390761 2.363573 0)
(2.070507 3.777089 -1.779937e-20)
(2.511394 4.819692 -4.103384e-18)
(1.930968 3.933352 0)
(1.136521 2.759454 4.544596e-18)
(0.8411315 2.401929 -3.799187e-20)
(0.3989889 1.140971 1.990913e-20)
(-0.3315068 -1.904638 3.084e-18)
(-0.7683341 -4.511893 3.588825e-21)
(-0.87886 -6.1952 0)
(-0.7938528 -7.287811 1.885878e-18)
(-0.5950862 -7.920608 1.4878e-20)
(-0.3145882 -8.059559 3.548586e-21)
(-0.01805918 -7.76643 -4.69822e-21)
(-0.01993413 -7.409351 -3.299235e-19)
(0.2324196 -6.605919 5.696248e-19)
(0.4146006 -5.686847 0)
(0.515739 -4.707143 7.818647e-19)
(0.5483052 -3.735206 0)
(0.5204031 -2.845698 2.060722e-18)
(0.4611601 -2.103038 6.259769e-21)
(0.3886538 -1.523224 -6.306698e-21)
(0.3222968 -1.10289 -1.382667e-18)
(0.3450112 -0.9399273 -1.329684e-18)
(0.4873494 -1.066903 0)
(0.7975966 -1.45661 1.106352e-20)
(1.394648 -2.315205 7.428099e-22)
(1.882127 -2.953626 -1.503509e-18)
(1.758234 -2.729687 -2.613754e-18)
(1.135994 -1.800459 9.013221e-19)
(0.3098725 -0.6399714 -5.267844e-19)
(-0.1710596 0.143297 -3.749453e-21)
(-0.05924044 0.1529373 0)
(0.4767332 -0.3364016 0)
(1.4342 -1.149871 0)
(3.259897 -2.642038 -1.03817e-18)
(3.524772 -2.899166 -9.847174e-21)
(1.266631 -1.354778 9.618039e-21)
(-0.8953862 0.1798584 -1.326197e-21)
(-2.48607 1.192783 1.302965e-21)
(-4.602414 2.136846 0)
(-7.404087 3.219366 0)
(-9.671624 4.204167 1.919865e-17)
(-10.95483 5.107064 6.311205e-20)
(-5.331179 3.2013 -6.20708e-20)
(6.82941 -1.999191 4.371351e-19)
(3.443563 -1.570547 7.002617e-19)
(0.9706347 -0.7425021 -2.035165e-20)
(-0.5614597 -0.2472684 -3.398409e-18)
(-1.350017 -0.01058342 2.559598e-18)
(-5.457433 0.6928697 -8.740498e-22)
(-0.3887143 0.4001481 1.023456e-18)
(9.653327 0.3698947 0)
(15.14911 0.7256697 2.037537e-19)
(17.27003 1.069142 1.747643e-18)
(17.71248 1.52023 1.894734e-18)
(17.79644 2.102912 1.969876e-18)
(17.71295 2.749182 -6.230601e-20)
(17.5405 3.402348 4.116175e-18)
(17.30011 4.05299 -3.146238e-20)
(17.0074 4.696991 0)
(16.66244 5.317253 7.853693e-18)
(16.26719 5.916153 0)
(15.82249 6.48296 -5.572728e-20)
(15.32641 7.006094 5.58517e-20)
(14.77482 7.482324 6.682832e-18)
(14.17562 7.905137 -4.662953e-20)
(13.5362 8.27424 5.790038e-18)
(12.86407 8.586106 -5.333479e-18)
(12.16271 8.837531 0)
(11.44244 9.036875 3.079238e-20)
(10.71035 9.179744 -3.758159e-18)
(9.962394 9.25335 -6.21872e-18)
(9.203244 9.259245 0)
(8.445238 9.207439 -1.939633e-18)
(7.697458 9.099465 -7.88536e-21)
(6.960789 8.927974 7.014585e-19)
(6.236095 8.692253 -1.508792e-21)
(5.529864 8.398421 1.526088e-21)
(4.847567 8.042541 -1.06851e-18)
(4.192033 7.628832 1.656465e-18)
(3.573822 7.162175 0)
(2.994023 6.647891 0)
(2.457702 6.089786 -1.659898e-20)
(1.969057 5.489527 0)
(1.531061 4.848606 0)
(1.145648 4.170311 0)
(0.8177175 3.465802 -2.508083e-18)
(0.5458834 2.746249 2.006449e-20)
(0.3407321 2.005478 1.111055e-20)
(0.1919296 1.258381 -5.443401e-21)
(0.1068268 0.533102 -7.396749e-19)
(0.08686214 -0.176723 2.960482e-21)
(0.1414744 -0.9643145 -7.20871e-19)
(0.2449937 -1.796096 1.363629e-18)
(0.4190641 -2.602598 1.036312e-20)
(0.6577031 -3.372799 -2.41943e-18)
(0.9556497 -4.110364 -3.519651e-20)
(1.312145 -4.815907 2.059294e-18)
(1.723417 -5.484655 -1.811094e-18)
(2.190025 -6.11728 0)
(2.704662 -6.713879 -5.10963e-18)
(3.265992 -7.260475 -1.331161e-20)
(3.871081 -7.760341 1.389834e-18)
(4.514175 -8.216752 7.644754e-19)
(5.192973 -8.616684 0)
(5.906063 -8.963302 0)
(6.644695 -9.260793 0)
(7.401261 -9.492199 1.723616e-20)
(8.17085 -9.65388 -1.712556e-20)
(8.953117 -9.756911 3.193794e-18)
(9.742558 -9.799582 5.414906e-21)
(10.53533 -9.777943 -4.587814e-18)
(11.32572 -9.69712 -7.433547e-20)
(12.10334 -9.552114 1.164658e-17)
(12.86005 -9.340057 6.43872e-18)
(13.59157 -9.063974 -5.226847e-20)
(14.30068 -8.730372 7.456667e-18)
(14.98234 -8.344567 6.080705e-20)
(15.62893 -7.901275 -6.884708e-20)
(16.23285 -7.406322 6.855308e-20)
(16.79056 -6.862358 7.535322e-20)
(17.30216 -6.275867 9.895548e-18)
(17.76316 -5.651712 -7.802036e-20)
(18.16109 -4.991601 0)
(18.49533 -4.300061 0)
(18.79756 -3.593189 0)
(19.05283 -2.881137 0)
(19.24295 -2.170988 2.145825e-20)
(19.35172 -1.465897 -2.137989e-20)
(19.34819 -0.8035326 1.326475e-18)
(19.12501 -0.2689657 5.088321e-21)
(17.97026 0.09597401 0)
(13.91588 0.3717373 -1.28866e-18)
(10.00798 0.7659735 2.813748e-18)
(5.607269 0.7557832 -2.688289e-18)
(-1.753109 -0.8933781 5.37528e-20)
(-6.854877 -2.180575 -7.804551e-18)
(-4.909905 -1.277115 5.087526e-20)
(-3.30823 -0.5912778 0)
(-1.053944 -0.03594787 9.323891e-18)
(-0.1472571 0.09782914 -1.653635e-17)
(-0.1361331 0.06642254 -7.563866e-18)
(0.2573748 0.4700999 -1.296055e-20)
(2.091078 1.716152 -6.086144e-20)
(5.308062 3.537901 2.411777e-20)
(2.202811 0.792774 0)
(-3.892261 -3.608699 6.610054e-18)
(-5.775751 -4.815444 9.082447e-18)
(-6.424087 -5.596187 -4.11157e-21)
(-6.328737 -5.779078 -1.026341e-17)
(-5.331951 -5.066206 1.680168e-17)
(-3.736623 -3.685557 6.373079e-18)
(-2.067612 -2.046417 1.633543e-21)
(-0.6444525 -0.4742529 -3.539604e-18)
(0.208457 0.5651043 -2.602565e-20)
(0.7072687 1.343597 -2.650179e-18)
(1.1404 2.277466 2.055449e-20)
(1.542085 3.293321 -5.477161e-22)
(2.219164 4.622096 -1.790309e-20)
(2.416322 5.087504 0)
(1.702159 3.98707 0)
(0.5683762 1.040682 -3.826885e-18)
(-0.4675462 -2.712945 0)
(-1.201441 -5.800777 -4.630518e-18)
(-1.474542 -7.333504 2.616627e-18)
(-1.435101 -8.017215 -2.321172e-20)
(-1.240814 -8.411151 2.321458e-20)
(-0.9606121 -8.520188 1.576796e-18)
(-0.6467443 -8.378386 -7.846892e-19)
(-0.3256558 -8.027317 -3.54723e-19)
(0.03339357 -7.266213 2.658263e-19)
(0.2267064 -6.447913 -4.641169e-19)
(0.3646462 -5.508131 1.103819e-20)
(0.4293652 -4.501382 -6.530476e-19)
(0.437348 -3.493868 0)
(0.390313 -2.561548 -1.694114e-18)
(0.3214233 -1.784812 -1.032853e-20)
(0.2618152 -1.235517 6.30027e-19)
(0.2643472 -0.9746831 1.14625e-18)
(0.4234011 -1.089561 1.101196e-18)
(0.6205674 -1.28616 1.081041e-18)
(0.977844 -1.649862 -8.377524e-21)
(1.525341 -2.394986 0)
(1.779367 -2.777794 0)
(1.360405 -2.302771 1.060197e-18)
(0.6485527 -1.368157 7.562578e-19)
(-0.2453905 -0.148691 4.470591e-19)
(-0.672731 0.6838897 6.1452e-21)
(-0.4855894 0.7078016 0)
(0.1079169 0.199517 -2.52583e-19)
(1.141687 -0.6252925 -6.838692e-19)
(2.996537 -2.249594 8.511871e-19)
(3.086641 -2.653923 0)
(0.8236001 -1.376828 -1.004122e-18)
(-0.6300289 -0.2356695 0)
(-1.757573 0.55186 -3.027252e-19)
(-3.665062 1.316748 0)
(-6.317668 2.2936 -4.113642e-18)
(-8.550665 3.599766 -1.601131e-17)
(-8.663385 4.488683 0)
(-6.252156 4.336748 0)
(4.072187 -0.5514184 -4.884431e-21)
(5.197115 -2.05528 -5.742108e-19)
(6.502461 -2.018855 1.47447e-18)
(6.193195 -1.726328 5.108502e-18)
(5.199196 -1.267341 -1.957205e-18)
(3.522717 -0.02108659 2.057054e-18)
(9.13063 0.5961087 -7.289271e-19)
(16.17477 0.8467631 0)
(17.53664 1.067966 0)
(17.33159 1.384735 -1.432914e-18)
(17.26146 1.929575 -1.585164e-18)
(17.25331 2.587961 -3.215223e-18)
(17.17939 3.264223 3.250321e-18)
(17.04202 3.94308 7.768182e-20)
(16.83832 4.603084 -5.194123e-20)
(16.56884 5.235334 0)
(16.22602 5.831182 0)
(15.8253 6.397247 6.155801e-18)
(15.37911 6.934446 -5.945443e-18)
(14.88361 7.425922 0)
(14.33557 7.869277 0)
(13.74332 8.257975 7.644774e-20)
(13.11249 8.594512 -4.827222e-18)
(12.45197 8.873212 0)
(11.76545 9.090578 -3.840427e-18)
(11.06105 9.258268 -3.410178e-18)
(10.34767 9.370489 -2.922767e-18)
(9.622177 9.412773 2.496374e-18)
(8.885494 9.389933 -2.782466e-20)
(8.150987 9.312589 1.536486e-18)
(7.427393 9.181578 0)
(6.717464 8.987777 -5.714029e-19)
(6.021455 8.731164 2.840923e-21)
(5.342943 8.41976 7.580156e-21)
(4.692833 8.045893 -9.427237e-19)
(4.066247 7.618695 0)
(3.476408 7.140881 -1.86993e-18)
(2.923254 6.61836 -1.941393e-20)
(2.414029 6.053866 2.718032e-18)
(1.94984 5.450031 1.555103e-18)
(1.534822 4.807424 -1.733057e-18)
(1.169538 4.129454 -1.898567e-18)
(0.858445 3.426612 2.041377e-18)
(0.5986172 2.710659 -2.173557e-18)
(0.40675 1.973135 -1.109703e-18)
(0.2618385 1.230531 2.330923e-18)
(0.1765424 0.5102108 1.210784e-18)
(0.1584668 -0.1953083 2.438464e-21)
(0.2240785 -0.9708764 5.968154e-19)
(0.321795 -1.789799 -8.904862e-21)
(0.4861159 -2.584546 0)
(0.7108772 -3.346132 -1.51249e-20)
(0.9901497 -4.078214 -1.279872e-20)
(1.325818 -4.78028 -1.631376e-18)
(1.712428 -5.447969 2.976233e-18)
(2.155919 -6.080581 -1.290781e-18)
(2.642566 -6.680963 2.074343e-18)
(3.173806 -7.233805 1.463093e-20)
(3.750767 -7.741388 0)
(4.363179 -8.209522 6.744761e-19)
(5.010945 -8.623321 -2.08458e-21)
(5.694909 -8.985208 3.792031e-19)
(6.403375 -9.302184 0)
(7.129601 -9.555463 1.481055e-18)
(7.872264 -9.739602 0)
(8.628331 -9.86816 -4.99863e-20)
(9.39155 -9.939348 3.11621e-18)
(10.16215 -9.9461 0)
(10.92989 -9.897794 -4.247606e-18)
(11.68709 -9.787133 -4.778059e-18)
(12.42577 -9.610527 -5.278603e-18)
(13.14132 -9.370346 0)
(13.83844 -9.071641 -1.245911e-17)
(14.51013 -8.722229 9.9856e-20)
(15.1495 -8.314457 0)
(15.74884 -7.855655 0)
(16.30469 -7.346777 0)
(16.81794 -6.793337 8.021253e-18)
(17.28118 -6.205062 -8.317935e-18)
(17.68566 -5.57869 0)
(18.02705 -4.916202 0)
(18.30376 -4.227102 4.409419e-18)
(18.52152 -3.513088 3.521713e-20)
(18.67251 -2.780143 0)
(18.74975 -2.041423 0)
(18.77293 -1.311141 -2.214025e-18)
(18.81668 -0.6430058 2.63735e-19)
(19.21034 -0.138105 0)
(18.78119 0.3722498 9.582121e-19)
(17.20022 1.017034 2.517087e-20)
(12.56192 1.003155 -1.599651e-21)
(1.258209 -0.8337252 -3.236809e-20)
(-2.474917 -1.335208 6.766391e-18)
(-0.426176 -0.002260055 7.405412e-18)
(1.44654 1.135064 9.417335e-20)
(3.34055 1.739522 5.18149e-20)
(4.393115 1.940969 6.231309e-18)
(4.131929 1.935226 5.8338e-18)
(3.59024 2.132875 0)
(3.608863 2.732141 2.99378e-18)
(4.894718 3.200487 0)
(0.652411 -0.9059441 -6.173514e-20)
(-3.900875 -4.193956 -5.130977e-18)
(-5.485219 -4.865649 1.264051e-19)
(-6.314695 -5.740003 -1.273297e-19)
(-6.388806 -5.883468 8.500472e-18)
(-5.547363 -5.065277 -6.794256e-18)
(-4.071364 -3.723238 -5.118408e-18)
(-2.432136 -2.119832 -3.862376e-18)
(-0.8558544 -0.4352471 -2.827574e-18)
(0.1054359 0.6117005 0)
(0.5109032 1.170721 1.420792e-21)
(0.7215021 1.715312 0)
(0.8847018 2.305499 -2.234431e-18)
(1.51901 3.243479 2.853373e-18)
(2.135533 4.318911 0)
(1.400292 2.563258 0)
(-0.2024555 -2.442661 5.985173e-18)
(-0.98804 -5.478548 -1.625024e-18)
(-1.237806 -6.635814 3.736329e-18)
(-1.240636 -7.065728 -1.770124e-20)
(-1.13196 -7.585915 1.78235e-20)
(-0.9419376 -8.065549 0)
(-0.704472 -8.30378 -1.301534e-18)
(-0.4496543 -8.25008 1.267231e-18)
(-0.1950651 -7.890439 2.954005e-19)
(-0.1046749 -7.25805 -4.357146e-19)
(0.08801276 -6.430727 -1.085328e-20)
(0.2266805 -5.472285 1.098465e-20)
(0.2850332 -4.436453 -1.468594e-20)
(0.2899824 -3.387881 1.504149e-20)
(0.2412979 -2.407791 6.951155e-19)
(0.1805706 -1.585784 -8.496064e-21)
(0.1508839 -1.023049 -5.191825e-19)
(0.1982952 -0.7829024 1.558445e-20)
(0.4390756 -1.035374 -8.930483e-19)
(0.6340765 -1.243477 -1.626585e-20)
(0.9633523 -1.474866 0)
(1.396285 -2.02679 0)
(1.479664 -2.274884 -1.046783e-18)
(1.011234 -1.923311 -8.934265e-19)
(0.3578253 -1.20644 -1.239087e-18)
(-0.6116492 0.04787422 -3.599597e-19)
(-1.166018 1.168976 0)
(-1.020156 1.384626 0)
(-0.3334756 0.8277143 3.991138e-19)
(0.7392983 0.03656032 1.113346e-18)
(2.234157 -1.391678 -1.195939e-20)
(2.260259 -2.128852 2.575437e-20)
(0.4389011 -1.380274 1.622047e-18)
(-0.09649218 -0.7585983 4.516081e-19)
(-0.8651711 -0.177089 2.656379e-19)
(-2.664861 0.4187843 1.371542e-18)
(-5.199162 1.258999 3.230597e-18)
(-7.254568 2.815692 6.827072e-18)
(-6.797424 3.939707 0)
(-5.327751 4.809926 -3.325758e-20)
(2.57753 0.7021787 -4.957653e-19)
(8.254166 -2.426842 -1.683608e-21)
(11.48438 -2.878888 -1.36347e-21)
(12.55838 -2.79658 -1.920062e-18)
(13.13627 -2.151468 -1.360066e-18)
(13.47247 -0.5219173 -6.383123e-20)
(15.98629 0.7098971 -5.416669e-19)
(17.8429 0.9399174 -2.407765e-19)
(17.08382 0.8642907 -2.051652e-21)
(17.07844 1.069254 0)
(17.28156 1.538789 -2.015166e-20)
(17.37902 2.131151 1.350979e-18)
(17.36175 2.768194 -5.368907e-18)
(17.2504 3.437021 4.197815e-20)
(17.06163 4.089598 -2.709333e-18)
(16.79282 4.730836 -8.19754e-20)
(16.45564 5.333499 -5.14787e-18)
(16.0579 5.912666 -1.056086e-20)
(15.61349 6.469342 4.905184e-18)
(15.12116 6.977843 -4.599708e-18)
(14.57531 7.441997 0)
(13.9843 7.851377 6.167438e-20)
(13.35244 8.211762 -6.203287e-20)
(12.68916 8.515297 0)
(11.99798 8.75843 3.164469e-18)
(11.2878 8.951705 6.666752e-20)
(10.5673 9.089521 2.443396e-18)
(9.834701 9.156181 -1.990802e-18)
(9.092313 9.154295 -1.59399e-18)
(8.348417 9.0994 -1.241588e-18)
(7.616094 8.989358 -8.010517e-19)
(6.897757 8.814886 3.350866e-21)
(6.191913 8.576987 -3.382933e-21)
(5.503048 8.283783 0)
(4.843068 7.926409 7.662496e-19)
(4.206035 7.514745 -2.109484e-20)
(3.606683 7.050718 1.557671e-18)
(3.044412 6.540656 1.875496e-18)
(2.528567 5.986707 -2.207043e-18)
(2.057715 5.392589 -1.276607e-18)
(1.63687 4.758781 -3.675585e-21)
(1.266192 4.088956 1.557727e-18)
(0.9525508 3.392718 2.679705e-20)
(0.6882346 2.68327 1.741881e-18)
(0.4967456 1.949545 1.458942e-20)
(0.3493606 1.209115 -9.741871e-19)
(0.2608963 0.4906521 -4.935546e-19)
(0.2437926 -0.2164257 -6.055128e-23)
(0.322406 -0.979328 4.735757e-19)
(0.4186379 -1.784879 7.294547e-21)
(0.5813463 -2.568366 -8.74465e-19)
(0.8077861 -3.320403 1.643241e-18)
(1.089423 -4.042763 0)
(1.42843 -4.73423 -3.460114e-21)
(1.818624 -5.390681 -1.224911e-18)
(2.268473 -6.01144 1.087745e-18)
(2.759997 -6.600513 -1.789527e-18)
(3.30093 -7.13912 1.853789e-20)
(3.889069 -7.63195 -1.837401e-20)
(4.508051 -8.087041 -5.544461e-19)
(5.166052 -8.484298 0)
(5.864423 -8.826966 -3.182743e-19)
(6.580808 -9.127892 2.324287e-20)
(7.316264 -9.362121 -6.049897e-20)
(8.069697 -9.525212 -1.586548e-18)
(8.834734 -9.633036 -2.136697e-18)
(9.606259 -9.682229 -1.605555e-20)
(10.38466 -9.665707 2.942085e-18)
(11.16103 -9.592017 -4.966222e-20)
(11.92434 -9.456622 -3.809344e-18)
(12.66858 -9.253475 0)
(13.39065 -8.984323 4.608479e-18)
(14.09142 -8.659253 5.060833e-18)
(14.76337 -8.286301 5.244627e-18)
(15.40207 -7.854512 -5.578501e-18)
(15.99904 -7.373697 5.975001e-18)
(16.55204 -6.842864 0)
(17.06185 -6.268086 -1.313145e-17)
(17.52071 -5.663523 1.373104e-17)
(17.92004 -5.020536 -1.629302e-19)
(18.25518 -4.347125 -3.544376e-18)
(18.52914 -3.645545 -3.614775e-18)
(18.73415 -2.933532 0)
(18.86157 -2.221166 1.873923e-18)
(18.89752 -1.511583 -1.863612e-18)
(18.83884 -0.8446321 9.191068e-19)
(18.66446 -0.2588982 -2.269961e-19)
(18.65752 0.1368503 -4.247203e-19)
(18.90201 0.5933961 1.252675e-20)
(19.0172 1.133541 -1.561269e-18)
(17.59292 1.009568 -1.119415e-20)
(8.021096 -0.4778873 0)
(2.657305 -0.1796033 0)
(4.209263 1.782223 -1.553327e-19)
(6.266924 3.08762 1.412969e-19)
(7.669895 3.574915 0)
(8.38613 3.63574 0)
(8.049356 3.623099 0)
(6.96765 3.696434 3.77013e-18)
(5.650725 3.776886 -4.860384e-18)
(4.637577 2.666314 1.50583e-18)
(-0.05897449 -2.182326 -2.132839e-18)
(-3.096291 -4.160587 -1.297209e-19)
(-4.992929 -4.631063 6.248538e-18)
(-5.940268 -5.514804 7.345821e-18)
(-6.113391 -5.538801 1.003272e-19)
(-5.41006 -4.636186 -2.097288e-20)
(-4.121367 -3.395228 -7.651329e-20)
(-2.656391 -1.960932 -4.150311e-20)
(-1.098427 -0.3661331 2.375903e-18)
(-0.03042741 0.6321143 0)
(0.2434048 0.839246 1.825173e-18)
(0.2058022 0.9590182 -1.748003e-18)
(0.1444056 1.221952 1.873452e-18)
(0.6873212 2.007862 0)
(1.573344 2.953815 0)
(0.6186518 -0.6670107 -3.751823e-20)
(-0.6405876 -4.941252 -2.31905e-18)
(-0.996977 -5.947332 1.363974e-18)
(-1.085835 -6.121196 -1.559537e-18)
(-1.159756 -6.669405 0)
(-1.149171 -7.413323 0)
(-1.040716 -7.993256 0)
(-0.8604893 -8.276544 -1.05094e-18)
(-0.6093087 -8.232988 -5.38338e-19)
(-0.3366966 -7.880901 -4.851898e-19)
(-0.1948334 -7.296712 1.783078e-19)
(-0.02798871 -6.473382 0)
(0.09073689 -5.510438 -5.216144e-19)
(0.1266219 -4.456471 0)
(0.1384082 -3.369587 -6.959071e-19)
(0.09424674 -2.336914 0)
(0.04553574 -1.454837 0)
(0.04674424 -0.8598317 -4.214992e-19)
(0.1529447 -0.5580489 -7.866686e-19)
(0.4246757 -0.8652629 7.460411e-19)
(0.6234612 -1.13916 -7.269952e-19)
(0.9332916 -1.285237 7.472306e-19)
(1.273799 -1.677289 0)
(1.319028 -1.968607 1.742402e-18)
(0.9224698 -1.95221 7.339426e-19)
(0.223396 -1.333791 5.205981e-19)
(-0.8103927 -0.07133692 -1.269665e-20)
(-1.390117 1.257267 -5.459728e-21)
(-1.391744 1.883479 -1.188213e-19)
(-0.7502684 1.485401 -2.97527e-19)
(0.3588617 0.6796125 -4.515812e-19)
(1.430929 -0.4662226 -2.023114e-20)
(1.326067 -1.405479 -7.204818e-19)
(0.2294599 -1.365478 -6.753499e-19)
(0.608321 -1.291721 -3.710228e-19)
(0.06682022 -0.9387583 0)
(-1.603488 -0.5230963 -2.987991e-21)
(-3.793994 0.05128915 0)
(-5.52713 1.804119 5.792541e-18)
(-4.888636 3.341159 6.608784e-18)
(-3.301346 4.779781 3.509845e-18)
(2.983685 1.532284 -8.68781e-20)
(10.66202 -2.322067 9.136501e-21)
(13.94897 -3.138494 -1.845306e-18)
(15.48586 -3.291915 0)
(16.98736 -2.675684 -9.595694e-19)
(17.77071 -0.9263668 -1.140898e-18)
(17.92185 0.5900348 8.818572e-19)
(17.21746 0.9302161 1.921778e-19)
(16.63659 0.9760455 0)
(16.86329 1.357294 4.825926e-19)
(17.01256 1.901498 0)
(17.08578 2.526002 0)
(17.05328 3.167618 2.239939e-18)
(16.93949 3.824957 -3.426671e-20)
(16.75226 4.459596 4.299936e-20)
(16.48766 5.077979 -2.142101e-18)
(16.15625 5.651272 4.322826e-18)
(15.76444 6.200275 -4.124112e-18)
(15.32908 6.72752 -3.964999e-18)
(14.85238 7.195468 1.909607e-19)
(14.32017 7.625857 -1.146881e-19)
(13.7464 7.999654 -9.997923e-20)
(13.13121 8.329838 -2.856269e-18)
(12.48706 8.605037 -2.875261e-18)
(11.81575 8.820183 -7.407015e-20)
(11.1231 8.991876 2.334735e-18)
(10.42473 9.107903 0)
(9.716025 9.152911 1.639356e-18)
(8.991801 9.136236 1.312224e-18)
(8.26693 9.068652 9.36453e-19)
(7.55591 8.947399 6.5913e-19)
(6.858055 8.764211 0)
(6.172743 8.518097 0)
(5.500928 8.221735 -3.569688e-19)
(4.86061 7.860545 0)
(4.237697 7.449378 0)
(3.654032 6.986619 1.341176e-18)
(3.108053 6.478555 -3.028318e-20)
(2.601845 5.929844 -1.19243e-20)
(2.138676 5.340889 -3.458189e-20)
(1.72594 4.712286 2.377958e-18)
(1.36387 4.047596 0)
(1.059806 3.356358 0)
(0.7918672 2.656543 1.473803e-18)
(0.6051908 1.927779 7.337082e-19)
(0.4552395 1.189316 7.855487e-19)
(0.3630052 0.4731473 -4.040815e-19)
(0.3468968 -0.2382882 0)
(0.4427117 -0.984583 -3.274142e-22)
(0.5383279 -1.776439 2.316406e-20)
(0.6894538 -2.549725 6.938429e-19)
(0.908034 -3.290561 -1.347322e-18)
(1.183691 -4.000981 -3.75721e-20)
(1.516847 -4.681553 1.13991e-18)
(1.90058 -5.328512 3.337901e-20)
(2.34382 -5.941725 1.75806e-18)
(2.820626 -6.527158 -1.389021e-20)
(3.347267 -7.062288 -1.188814e-18)
(3.925476 -7.552901 3.076599e-20)
(4.528795 -8.009495 0)
(5.165378 -8.41026 1.589486e-19)
(5.848989 -8.755996 0)
(6.550302 -9.062688 0)
(7.262796 -9.307449 -9.654801e-19)
(7.996135 -9.480649 2.613252e-18)
(8.74384 -9.599661 5.80446e-20)
(9.494241 -9.664098 -1.106712e-19)
(10.25242 -9.663974 -2.416735e-18)
(11.00807 -9.611013 -2.723314e-18)
(11.75099 -9.498015 3.241815e-18)
(12.4737 -9.321307 -3.508403e-18)
(13.174 -9.081583 -7.255183e-20)
(13.8577 -8.783597 0)
(14.51192 -8.44298 -4.539809e-18)
(15.13513 -8.04304 9.558613e-18)
(15.71768 -7.597429 -5.082417e-18)
(16.25727 -7.102649 0)
(16.75755 -6.563217 9.00655e-20)
(17.20761 -5.995482 -5.501218e-18)
(17.60062 -5.384886 -8.791317e-20)
(17.93305 -4.741277 1.396113e-19)
(18.20435 -4.063299 -9.220953e-20)
(18.41035 -3.368244 0)
(18.54007 -2.668235 -2.987589e-18)
(18.58299 -1.961895 1.450618e-18)
(18.543 -1.270543 7.241283e-19)
(18.41585 -0.616879 -1.136544e-20)
(18.29556 -0.08533714 3.456672e-19)
(18.27455 0.4805508 6.624769e-19)
(18.26732 1.015342 0)
(19.27995 0.791598 1.087896e-18)
(14.89345 -0.09231505 -8.873608e-20)
(10.44143 0.9535892 3.860128e-18)
(10.52996 3.441793 0)
(11.2677 4.907698 0)
(11.61454 5.172717 0)
(11.76479 5.031123 5.627937e-20)
(11.30095 4.945424 3.369071e-18)
(9.970811 4.901457 -3.083229e-18)
(7.857874 4.625851 2.101276e-18)
(4.929516 2.166569 -2.262067e-18)
(0.2585885 -2.795351 1.763216e-18)
(-1.962721 -3.850469 0)
(-4.071057 -4.139885 -5.216111e-18)
(-5.142828 -5.006639 -6.026421e-18)
(-5.441759 -4.851382 6.129868e-18)
(-4.890428 -3.807195 -1.609201e-19)
(-3.812557 -2.64222 -9.256304e-20)
(-2.631454 -1.465446 9.50095e-20)
(-1.301363 -0.2056873 0)
(-0.1501713 0.6442589 -1.663422e-18)
(-0.01030551 0.4199903 4.681836e-20)
(-0.2047887 0.2459015 2.897827e-18)
(-0.4399133 0.260336 -1.643562e-18)
(-0.2104034 0.3764936 1.248142e-19)
(0.6922663 0.1368435 -2.216095e-18)
(-0.01828888 -3.695619 0)
(-0.6209863 -5.61949 -1.929725e-18)
(-0.7885247 -5.38328 1.164076e-18)
(-0.9201818 -5.81664 -8.161612e-20)
(-1.006302 -6.655424 1.566428e-18)
(-0.9891687 -7.465248 -7.412473e-20)
(-0.8870812 -8.051935 2.5961e-20)
(-0.7422519 -8.328785 8.795146e-19)
(-0.5810436 -8.269904 -6.460936e-21)
(-0.3831792 -7.913184 7.087015e-21)
(-0.3034084 -7.360241 8.464167e-21)
(-0.1596929 -6.556763 2.435363e-19)
(-0.0632341 -5.607436 4.260152e-19)
(-0.04892908 -4.54855 -3.485691e-19)
(-0.03588504 -3.43755 5.678601e-19)
(-0.07847283 -2.354587 0)
(-0.1099299 -1.38333 3.674491e-19)
(-0.09073301 -0.7158087 3.701613e-19)
(0.04111189 -0.3776286 6.511171e-19)
(0.4116593 -0.6183313 0)
(0.6161286 -1.015111 0)
(0.9544818 -1.210505 -6.150081e-19)
(1.295148 -1.596477 -2.166363e-20)
(1.373162 -2.011629 -6.95608e-19)
(0.9021592 -2.097613 -6.18936e-19)
(0.015218 -1.458552 -4.386493e-19)
(-1.048589 -0.222817 2.718343e-19)
(-1.495354 1.127613 -2.118994e-19)
(-1.489658 2.009397 9.714293e-20)
(-0.9685736 1.946126 1.14647e-19)
(0.08630017 1.234042 0)
(0.8867968 0.2142671 0)
(0.5984392 -0.7833539 6.23294e-19)
(0.311585 -1.384191 0)
(1.42579 -1.797652 2.281986e-21)
(1.069671 -1.724678 -1.95538e-20)
(-0.2910811 -1.577416 -8.479424e-19)
(-1.932275 -1.4311 -5.121001e-20)
(-3.173356 0.5038448 1.144158e-19)
(-2.346818 2.546826 -5.674258e-18)
(-0.3679839 4.374048 1.530402e-19)
(4.86135 2.107049 2.000907e-19)
(12.22546 -1.764263 -1.554712e-20)
(14.17471 -2.745672 7.79894e-19)
(15.47485 -3.071409 -3.100028e-20)
(17.16047 -2.580684 3.355349e-18)
(17.9391 -1.077286 2.568895e-20)
(17.52145 0.356291 -1.04555e-20)
(16.74898 0.7610601 -3.44835e-19)
(16.68694 0.8575904 -2.865374e-21)
(16.8929 1.180337 -3.987924e-19)
(17.04591 1.647202 -2.658352e-20)
(17.125 2.218364 -8.32933e-19)
(17.09482 2.82103 1.741782e-18)
(16.97877 3.469099 -1.751905e-18)
(16.79385 4.092425 3.412988e-18)
(16.5312 4.722448 1.874508e-18)
(16.20204 5.310129 0)
(15.80852 5.878592 0)
(15.37305 6.428179 3.215071e-18)
(14.89662 6.916238 3.065132e-18)
(14.36417 7.365441 0)
(13.79266 7.751616 -8.011956e-20)
(13.17737 8.096207 2.590345e-18)
(12.53033 8.390664 2.290691e-18)
(11.85964 8.61792 1.984316e-18)
(11.17259 8.795406 -5.173213e-20)
(10.47614 8.923774 -1.461327e-18)
(9.76479 8.984728 3.567769e-20)
(9.045078 8.974078 -3.600217e-20)
(8.328344 8.910289 -7.889711e-19)
(7.620287 8.798442 4.871038e-19)
(6.91881 8.630468 0)
(6.241496 8.388776 0)
(5.572367 8.102511 6.002939e-19)
(4.940931 7.747321 -7.91451e-21)
(4.322479 7.344928 -7.572763e-21)
(3.754134 6.886694 -1.034272e-18)
(3.216665 6.385835 -2.564952e-18)
(2.704135 5.853868 1.42234e-18)
(2.243912 5.276951 -1.68871e-18)
(1.835902 4.658765 -9.302447e-19)
(1.482309 4.002137 -3.165371e-20)
(1.186045 3.31458 0)
(0.9119617 2.627786 -1.150615e-18)
(0.738378 1.907572 -3.860767e-20)
(0.5830519 1.170919 -6.531727e-19)
(0.4875174 0.458359 3.462635e-19)
(0.4734357 -0.2588688 -2.718876e-23)
(0.5852095 -0.9857698 -3.370528e-19)
(0.6715131 -1.767811 2.871877e-20)
(0.8166548 -2.52777 -6.050529e-19)
(1.025988 -3.250114 1.10467e-18)
(1.295227 -3.944905 -1.059613e-18)
(1.624179 -4.613776 2.705128e-21)
(2.004233 -5.250071 8.628794e-19)
(2.452149 -5.852285 -1.400234e-18)
(2.920038 -6.432325 1.189785e-18)
(3.435731 -6.962096 8.905398e-19)
(4.014877 -7.444081 8.156519e-21)
(4.626043 -7.888266 8.564502e-21)
(5.254924 -8.282167 -1.217117e-19)
(5.921878 -8.62922 -1.244062e-19)
(6.623475 -8.927484 1.854855e-20)
(7.335023 -9.162175 7.020088e-19)
(8.060538 -9.329164 -2.102427e-18)
(8.800591 -9.444458 1.336496e-18)
(9.556223 -9.491174 -5.398339e-20)
(10.31165 -9.481173 -1.947436e-18)
(11.05982 -9.424102 4.484052e-18)
(11.80302 -9.29756 8.243457e-20)
(12.52276 -9.110249 2.721181e-18)
(13.22331 -8.854199 -3.167505e-18)
(13.90876 -8.539335 9.823554e-20)
(14.56156 -8.185594 -3.591011e-18)
(15.18498 -7.766929 -3.66907e-18)
(15.76625 -7.305453 1.264348e-19)
(16.30656 -6.787851 -4.221602e-18)
(16.80665 -6.227275 4.360138e-18)
(17.25574 -5.640639 0)
(17.64627 -5.013109 0)
(17.97387 -4.350262 2.37533e-18)
(18.23912 -3.670054 2.379736e-18)
(18.44314 -2.979782 0)
(18.57458 -2.284845 1.279545e-18)
(18.62041 -1.597439 1.173332e-18)
(18.57577 -0.9533539 -6.068324e-19)