/*--------------------------------*- C++ -*----------------------------------*\
| =========                 |                                                 |
| \\      /  F ield         | OpenFOAM: The Open Source CFD Toolbox           |
|  \\    /   O peration     | Version:  2406                                  |
|   \\  /    A nd           | Website:  www.openfoam.com                      |
|    \\/     M anipulation  |                                                 |
\*---------------------------------------------------------------------------*/
FoamFile
{
    version     2.0;
    format      ascii;
    arch        "LSB;label=32;scalar=64";
    class       surfaceScalarField;
    location    "0.56";
    object      phi;
}
// * * * * * * * * * * * * * * * * * * * * * * * * * * * * * * * * * * * * * //

dimensions      [0 3 -1 0 0 0 0];

oriented        oriented;

internalField   nonuniform List<scalar> 
6770
(
1.045008e-10
-1.794448e-09
1.689947e-09
-1.467804e-09
3.426917e-10
1.125112e-09
-1.483741e-09
1.358335e-09
1.254057e-10
1.684599e-09
-1.006338e-09
-6.782613e-10
7.850368e-09
-7.127377e-09
-7.229919e-10
6.272722e-10
8.50349e-10
-1.477621e-09
-1.11347e-09
1.563973e-09
-4.505023e-10
-1.262929e-09
1.204825e-09
5.81036e-11
-8.833266e-10
-8.073661e-10
1.690693e-09
-1.182479e-09
1.221223e-09
-3.874389e-11
1.773314e-10
-1.254324e-09
1.076993e-09
7.66583e-10
-1.683772e-09
9.171893e-10
1.331083e-09
-1.397531e-09
6.644781e-11
1.09805e-09
-1.650701e-09
5.526504e-10
-2.426323e-10
1.905525e-09
1.817157e-09
-4.918342e-09
3.101185e-09
4.533346e-10
1.328097e-09
-1.781432e-09
-2.32174e-09
5.301967e-10
1.791543e-09
-1.249595e-09
9.653993e-10
2.841954e-10
-6.714442e-10
-1.146818e-09
1.818262e-09
-8.306856e-10
-1.005853e-09
1.836539e-09
5.696303e-10
-1.506856e-09
9.372261e-10
9.23249e-10
-1.786347e-09
8.630981e-10
1.514087e-09
-1.12213e-09
-3.919575e-10
-1.195056e-09
9.038682e-10
2.911878e-10
-1.337852e-09
-2.684112e-10
1.606263e-09
1.209943e-09
3.88375e-10
-1.598318e-09
7.920877e-10
9.414573e-10
-1.733545e-09
-1.534432e-09
7.55627e-10
1.973087e-10
-1.083599e-09
8.862904e-10
3.031714e-10
-1.38189e-09
1.078719e-09
1.886537e-09
-1.556937e-09
-3.295994e-10
1.493879e-09
-2.941356e-10
-1.199743e-09
-2.333204e-10
1.688416e-09
-1.455096e-09
-2.132872e-09
2.007982e-09
1.248898e-10
-6.643417e-09
5.047859e-09
1.595559e-09
7.656226e-10
-1.683172e-09
9.175498e-10
-2.03073e-09
1.388468e-09
6.422621e-10
-9.984152e-10
2.169593e-09
-1.171178e-09
3.122894e-09
-2.672882e-09
-4.500115e-10
1.574394e-09
-1.472665e-09
-1.017292e-10
1.73368e-09
-7.472937e-10
-9.863866e-10
-1.924387e-09
1.622025e-09
3.02362e-10
-1.587362e-09
1.014253e-09
5.731094e-10
-1.271395e-09
8.573876e-10
4.140069e-10
-1.93444e-09
1.626946e-09
3.074944e-10
-1.221494e-09
8.171928e-10
4.043007e-10
-7.933494e-10
-8.192921e-10
1.612641e-09
-5.474631e-10
-1.437889e-09
1.985352e-09
-1.568184e-09
-6.018166e-10
2.17e-09
5.759177e-10
9.291805e-10
-1.505098e-09
-1.202752e-09
3.664825e-10
8.362691e-10
-5.942001e-09
2.177196e-10
5.724282e-09
-1.182738e-09
-3.859852e-10
1.568723e-09
1.624364e-09
7.64323e-10
-2.388687e-09
-1.569807e-09
1.051306e-09
5.185012e-10
1.428431e-09
-2.348112e-10
-1.19362e-09
-1.51313e-09
1.149921e-09
3.632091e-10
3.32922e-10
1.42786e-09
-1.760782e-09
-4.994717e-10
-2.467523e-09
2.966995e-09
-1.51232e-09
1.432471e-09
7.984858e-11
-1.153448e-09
2.431647e-10
9.102834e-10
3.517544e-10
1.300095e-09
-1.65185e-09
-3.783747e-10
-1.432075e-09
1.81045e-09
-1.643341e-09
1.817089e-09
-1.753984e-09
9.980019e-10
7.559825e-10
-1.049161e-11
-1.725524e-09
1.736016e-09
1.007592e-09
-1.766669e-09
7.590769e-10
-8.371974e-11
-1.441034e-09
1.524754e-09
-1.48774e-09
9.248622e-10
5.628777e-10
-5.663282e-10
-1.016087e-09
1.582415e-09
2.179207e-09
-9.376338e-10
-1.241573e-09
1.253509e-09
5.910314e-10
-1.84454e-09
-8.961617e-10
-8.360498e-10
1.732211e-09
-3.496837e-10
1.857073e-09
-1.50739e-09
4.730786e-10
1.958606e-09
-2.431684e-09
-1.108164e-09
1.564813e-09
-4.566486e-10
-1.693865e-09
3.94705e-10
1.29916e-09
1.859202e-09
-4.010211e-10
-1.458181e-09
-1.651135e-10
3.517311e-09
-3.352198e-09
-4.896818e-09
8.576749e-09
-3.679931e-09
-1.22605e-09
-3.313598e-09
4.539648e-09
-2.10268e-09
1.423436e-09
6.792445e-10
-5.943326e-10
1.795372e-09
-1.201039e-09
-1.67758e-09
1.444259e-09
-1.079101e-09
-7.068786e-10
1.785979e-09
7.180257e-10
1.285795e-09
-2.003821e-09
-1.409527e-09
5.969032e-10
8.126243e-10
-1.370009e-10
-1.208002e-09
1.345003e-09
-1.700595e-09
3.457469e-10
1.354849e-09
-9.475633e-10
-1.110152e-09
2.057715e-09
7.319247e-10
-1.627379e-09
8.954538e-10
-1.18207e-09
-4.732286e-10
1.655298e-09
1.525319e-09
-3.438676e-10
-1.181452e-09
9.318514e-10
6.358671e-10
-1.567718e-09
1.189829e-09
-3.156296e-10
-8.741992e-10
8.008664e-10
-1.667892e-09
8.670255e-10
-1.279676e-09
1.157565e-09
1.221111e-10
5.861836e-10
-1.466936e-09
9.114053e-10
8.399623e-10
-1.751368e-09
-6.118816e-10
1.533743e-09
-9.218609e-10
-1.051966e-09
1.69656e-09
-6.445939e-10
1.651789e-09
-4.125444e-10
-1.239244e-09
-1.777195e-09
1.055542e-09
7.216536e-10
1.548266e-09
-1.26943e-09
-2.788368e-10
1.155758e-09
-1.046963e-09
-1.087947e-10
-1.333444e-09
1.1934e-09
1.40044e-10
2.102079e-09
-1.521482e-09
-5.805973e-10
9.860206e-10
-1.400289e-09
4.142685e-10
6.19791e-09
-9.390142e-10
-5.258896e-09
1.729408e-09
-3.914236e-10
-1.337984e-09
1.601675e-09
-4.775846e-10
-1.12409e-09
-9.230155e-10
1.460081e-09
-5.370659e-10
1.610035e-09
-1.241819e-09
-3.682162e-10
9.988078e-10
1.019376e-09
-2.018183e-09
1.046905e-09
6.867757e-10
-2.653446e-10
-4.632573e-09
4.897918e-09
-5.508533e-11
-1.345009e-09
1.400094e-09
-1.491328e-09
4.282306e-10
1.063097e-09
-1.282167e-09
1.093769e-09
1.883981e-10
1.012926e-09
1.656213e-09
-2.669139e-09
-6.804684e-10
1.704786e-09
-1.024318e-09
-1.535855e-09
1.681304e-09
-1.454489e-10
1.817212e-09
-1.259855e-09
-5.573571e-10
7.524097e-10
1.079684e-09
-1.832093e-09
-3.990355e-10
1.714004e-09
-1.314969e-09
5.981319e-10
-1.912433e-09
1.314302e-09
-1.251534e-09
1.637605e-09
-3.860703e-10
1.962555e-09
-1.030704e-09
-2.013202e-09
1.438622e-09
5.745795e-10
1.061313e-09
8.366811e-10
-1.897994e-09
-7.963869e-10
-5.078533e-10
1.30424e-09
1.56292e-09
-4.071628e-10
-5.56927e-10
-8.155814e-10
1.372508e-09
1.56065e-09
-4.141801e-10
-1.14647e-09
2.101393e-09
-1.057074e-09
-1.044319e-09
1.234675e-09
4.27386e-10
-1.662061e-09
-1.66839e-09
1.409886e-09
2.585036e-10
4.573842e-09
8.639524e-10
-5.437794e-09
1.528694e-09
-1.450146e-09
-7.854895e-11
-1.632941e-09
9.281251e-10
7.048162e-10
1.114946e-09
-5.023725e-09
3.908779e-09
-1.551149e-09
3.022055e-10
1.248943e-09
1.238016e-09
7.887432e-10
9.654804e-10
6.264244e-10
-1.591905e-09
1.712266e-09
-1.408689e-09
-3.035771e-10
7.468468e-10
-1.341258e-09
5.944108e-10
5.782856e-10
-1.36766e-09
7.893746e-10
1.870533e-09
-1.462217e-09
-4.083167e-10
-7.836541e-09
1.89454e-09
2.25992e-10
1.070039e-09
-1.296031e-09
-1.146282e-09
6.840304e-10
4.622516e-10
6.261188e-10
9.522282e-10
-1.578347e-09
7.693804e-10
8.700987e-10
-1.639479e-09
1.542187e-09
-9.600707e-10
-5.821165e-10
3.790342e-12
2.643979e-09
-2.647769e-09
-1.68957e-09
9.13413e-10
7.761565e-10
-9.696995e-10
1.958054e-09
-9.883541e-10
1.4869e-09
4.591777e-10
-1.946078e-09
-1.584913e-09
-2.724677e-10
1.857381e-09
1.169272e-09
-1.755936e-09
5.866635e-10
-2.051471e-09
2.524549e-09
1.268223e-09
-1.001503e-09
-2.667195e-10
4.407812e-10
-1.526512e-09
1.08573e-09
-2.349082e-10
1.517767e-09
-1.282858e-09
-1.810077e-09
2.402702e-10
-1.570549e-09
2.86969e-10
1.28358e-09
3.744164e-10
-1.75004e-09
1.375623e-09
-1.667152e-09
6.238728e-10
1.043279e-09
-5.747705e-10
2.465682e-09
-1.890911e-09
-1.950344e-09
1.119658e-09
1.419233e-09
-1.080438e-11
-1.408429e-09
8.87172e-10
7.607883e-10
-1.64796e-09
3.026099e-10
-1.636769e-09
1.33416e-09
-7.433664e-10
1.814382e-09
-1.071015e-09
-5.443052e-10
2.031205e-09
1.206092e-09
-1.575642e-09
3.6955e-10
1.002927e-10
-1.636148e-09
2.346915e-11
1.278675e-09
-1.302144e-09
-1.464882e-09
6.637677e-10
8.011145e-10
1.361732e-09
-1.592827e-09
2.310955e-10
1.345726e-10
-1.590892e-09
1.456319e-09
-8.81875e-10
1.628722e-09
2.931512e-09
-1.404261e-09
7.650138e-10
6.392476e-10
2.37851e-10
8.131506e-10
-1.051002e-09
1.047025e-09
-1.530578e-09
4.835533e-10
3.542254e-10
1.320606e-09
-1.674831e-09
-1.244402e-09
1.892518e-09
-6.481157e-10
9.785272e-10
-1.211584e-09
2.330568e-10
1.513159e-09
-6.26271e-10
-8.86888e-10
1.113752e-09
5.94781e-10
-1.708533e-09
-1.697359e-09
1.119947e-09
5.774124e-10
3.68678e-10
-1.337658e-09
9.689797e-10
-1.675253e-09
9.838605e-10
6.913924e-10
-2.564407e-10
-1.208441e-09
-1.74093e-09
1.290622e-09
4.503074e-10
-8.049726e-10
1.716378e-09
-1.759189e-09
1.184418e-09
1.079494e-09
7.055336e-10
-1.785028e-09
6.325058e-10
-2.026722e-09
1.394216e-09
-7.497957e-10
-1.112536e-09
1.862332e-09
-1.624947e-09
4.78129e-10
1.146818e-09
2.225698e-10
-1.201639e-09
9.790695e-10
1.039728e-09
9.742731e-11
-1.137155e-09
-1.75016e-10
1.550853e-09
-1.375837e-09
1.679017e-09
-1.385405e-09
-2.936118e-10
2.103972e-09
-1.020245e-09
-1.083727e-09
3.545532e-10
1.377719e-09
-1.732272e-09
8.862151e-10
8.65803e-10
-1.752018e-09
-1.122787e-09
-5.479285e-10
1.670716e-09
4.709664e-10
-1.320085e-09
8.49119e-10
1.75806e-09
-7.16553e-10
-1.041507e-09
9.841482e-10
4.801926e-10
-1.464341e-09
2.571018e-10
9.477173e-10
-1.204819e-09
1.402276e-09
7.016969e-10
-4.930368e-10
-1.214841e-09
1.707877e-09
-1.287349e-09
-2.653461e-10
1.552695e-09
1.527679e-09
-4.65615e-10
-1.062064e-09
8.305598e-10
-2.00489e-09
1.17433e-09
-1.402587e-09
3.56905e-10
1.045682e-09
1.107287e-09
-1.698358e-09
5.910711e-10
-6.05557e-11
-1.872711e-09
1.933266e-09
3.135992e-09
-1.511628e-09
1.402867e-09
-1.119136e-09
-2.837303e-10
-1.555649e-09
9.274032e-10
6.282454e-10
-8.779086e-10
1.160241e-09
-2.823328e-10
1.990348e-10
-1.372079e-09
1.173044e-09
8.739571e-10
-1.83516e-09
9.612024e-10
-1.517713e-09
-5.40314e-10
2.058027e-09
-1.315192e-09
-1.526123e-10
-1.693329e-09
9.896875e-10
7.036412e-10
8.010714e-10
1.037481e-09
-1.838553e-09
1.483927e-09
-2.126045e-09
6.421182e-10
-1.060147e-09
1.592549e-09
-5.324021e-10
1.695656e-09
-4.609812e-10
-1.711081e-09
2.392534e-10
1.471827e-09
-1.073726e-09
2.019864e-09
-9.461374e-10
-7.843053e-10
-1.127006e-09
1.911312e-09
-1.245818e-09
2.192865e-09
-9.470467e-10
-1.767071e-09
1.982875e-09
-1.190787e-09
-1.17427e-09
1.779005e-09
-6.047354e-10
-1.21014e-09
3.264607e-10
8.836791e-10
1.838214e-09
-1.306873e-09
-5.313411e-10
2.139619e-09
-1.696935e-09
-4.426839e-10
1.73461e-09
-6.303484e-10
-1.104261e-09
-1.28998e-09
-3.312522e-10
1.621232e-09
1.190797e-09
3.368827e-10
1.530069e-09
2.279913e-10
1.576592e-09
-9.306818e-10
-6.459104e-10
8.354619e-10
-1.852314e-09
1.016852e-09
1.492509e-09
4.084085e-11
-1.53335e-09
-8.759766e-10
-5.797794e-10
1.455756e-09
1.429409e-09
-1.06539e-09
-3.640192e-10
-1.216548e-09
-5.107605e-10
1.727308e-09
2.065444e-10
-1.226345e-09
1.019801e-09
-1.647348e-09
1.655114e-09
-7.765459e-12
-1.066453e-09
-7.006182e-10
-9.985179e-10
-2.71624e-10
1.270142e-09
-1.983062e-09
8.205309e-10
1.162531e-09
1.858783e-09
-1.43938e-09
-4.194035e-10
1.084104e-09
9.253023e-10
-2.009406e-09
-1.661643e-09
3.913233e-10
1.27032e-09
1.839893e-09
-3.608139e-10
-1.479079e-09
6.376344e-10
1.263801e-09
-1.418758e-09
1.549563e-10
-1.431312e-09
-3.817549e-10
1.813067e-09
1.221009e-09
8.984402e-10
-2.119449e-09
-2.10792e-09
9.550686e-10
1.152851e-09
-8.004561e-10
1.596972e-09
-7.965159e-10
8.348097e-10
-1.126958e-09
2.92148e-10
-2.388471e-10
-1.457663e-09
1.69651e-09
-4.855029e-09
3.628979e-09
1.779279e-09
-5.265054e-09
3.485775e-09
-1.72683e-09
1.279191e-09
4.476382e-10
-1.743888e-09
1.494053e-09
2.498343e-10
1.396289e-09
-3.513043e-11
-1.361159e-09
-1.730986e-09
1.392737e-09
3.382494e-10
-3.134696e-09
-1.598378e-11
3.150679e-09
-4.683953e-10
1.911215e-09
-1.44282e-09
1.364914e-09
-2.368003e-09
1.00309e-09
1.8372e-11
1.367583e-09
-1.385955e-09
-1.332736e-09
-5.026157e-10
1.835351e-09
-1.57089e-09
1.788062e-09
-2.171717e-10
2.359716e-09
-1.237256e-09
-1.12246e-09
-1.622502e-09
4.61694e-10
1.160808e-09
-1.581194e-09
9.006259e-10
6.805678e-10
2.7901e-10
1.456543e-09
-1.735553e-09
-1.581343e-09
1.015015e-09
1.418745e-09
4.98091e-11
-1.468554e-09
1.56498e-09
-7.925736e-10
-7.72406e-10
-1.034541e-10
1.170543e-09
-1.067088e-09
-8.42794e-10
-9.907643e-10
1.833558e-09
-1.86122e-09
7.029989e-10
1.158221e-09
1.274745e-09
-2.268248e-11
-1.252063e-09
1.034034e-09
1.291769e-09
-2.325803e-09
1.094843e-09
1.171111e-09
-1.328293e-09
1.571816e-10
2.653844e-09
-7.405368e-09
4.751524e-09
1.860918e-09
2.12576e-11
-1.882175e-09
-1.472544e-09
9.81531e-10
4.910126e-10
1.69357e-09
-7.920577e-10
-9.015123e-10
1.003327e-09
-1.233113e-09
2.297858e-10
-5.040252e-09
-2.79629e-09
-5.318352e-10
1.495035e-09
-9.632001e-10
1.711617e-09
-9.459941e-10
-1.825121e-09
-8.283533e-11
1.907956e-09
2.110906e-10
1.443893e-09
-1.654984e-09
1.070589e-09
-2.042978e-10
-8.662907e-10
-8.60503e-10
-5.318961e-10
1.392399e-09
-1.689967e-09
-1.316275e-09
3.006242e-09
-1.034583e-09
-9.69911e-10
2.004494e-09
1.004665e-09
-1.602442e-09
5.977771e-10
3.444317e-11
-1.321256e-09
1.286813e-09
-5.542108e-10
-1.158323e-09
1.712534e-09
-6.804029e-10
1.794372e-09
-1.113969e-09
1.649488e-09
-2.647903e-09
1.608214e-09
-1.85452e-09
2.463058e-10
1.397638e-09
-2.142013e-09
7.443744e-10
7.840772e-10
2.470521e-10
-1.031129e-09
2.22167e-09
7.098424e-10
-3.641689e-10
-1.614756e-09
1.978925e-09
2.729737e-10
-1.785725e-09
1.512752e-09
-6.947365e-10
-8.949759e-10
1.589712e-09
1.573823e-09
-1.628908e-09
-3.698583e-10
1.474196e-09
-1.104338e-09
1.092909e-10
-1.539098e-09
1.429807e-09
-1.182984e-09
-5.065856e-10
-8.807668e-10
1.075081e-09
-1.943139e-10
1.539624e-09
-1.910639e-09
3.710145e-10
2.754629e-09
-2.776197e-09
2.156883e-11
1.491239e-09
-1.107761e-09
-3.834786e-10
-1.525565e-09
1.116518e-09
4.090476e-10
1.649706e-09
-1.230791e-09
3.275426e-10
1.322163e-09
1.088694e-09
-1.547677e-09
4.589831e-10
9.539092e-10
-1.183981e-09
2.30072e-10
-7.551765e-10
8.141522e-10
9.818879e-10
-1.79604e-09
9.849399e-10
-1.205369e-09
2.204292e-10
-1.426186e-09
1.586631e-09
-1.604447e-10
1.475885e-09
-3.621332e-10
-1.866893e-09
8.292039e-10
1.037689e-09
1.932312e-09
-2.421301e-10
-1.690182e-09
-8.723933e-12
1.237907e-09
-1.229183e-09
-1.380262e-10
1.305805e-09
-1.167779e-09
-1.50857e-09
-3.805095e-11
1.546621e-09
-1.446961e-09
1.470139e-09
-2.317814e-11
-1.405092e-09
1.027312e-09
3.777808e-10
1.21414e-09
-9.914714e-10
-2.226682e-10
1.911141e-09
-1.612934e-09
-2.982077e-10
-1.391872e-09
1.970791e-10
1.194793e-09
1.827565e-09
-1.15321e-09
-6.743552e-10
-8.92535e-10
-1.940775e-09
2.469104e-10
-6.233822e-10
-1.052949e-09
1.676331e-09
-8.660258e-10
1.078372e-09
-2.123464e-10
1.623151e-09
-1.939805e-09
3.16654e-10
-1.216281e-09
2.129694e-09
1.732632e-09
-9.564753e-10
-1.238064e-09
-3.878038e-10
1.625868e-09
-3.386659e-10
-9.327286e-10
8.558295e-10
2.435508e-09
-3.291338e-09
-1.091777e-09
1.689908e-09
2.081059e-09
-1.505612e-09
-5.754465e-10
8.93789e-10
8.465333e-10
-1.740322e-09
1.74534e-09
-1.006948e-10
-1.644645e-09
-9.332314e-11
-1.316685e-09
1.410008e-09
-1.034295e-09
-5.84238e-10
1.618533e-09
7.061098e-11
1.607914e-09
-1.678525e-09
-1.456027e-09
1.77403e-09
-3.180024e-10
1.115151e-09
5.604214e-10
-1.675572e-09
-4.377878e-10
1.33326e-09
-8.954721e-10
-1.855777e-09
1.524803e-09
3.309734e-10
-1.223992e-09
1.283656e-09
-5.966373e-11
-4.292192e-10
-7.766296e-10
1.205849e-09
2.016055e-09
-1.227299e-09
-7.887557e-10
-5.310367e-10
-7.139147e-10
1.244951e-09
-5.225567e-13
1.095054e-09
-1.094531e-09
1.347468e-09
-1.44576e-09
9.829252e-11
1.434594e-09
2.886402e-10
-1.723234e-09
5.842921e-10
6.888096e-10
-1.273102e-09
-4.809258e-10
-8.572186e-10
1.338144e-09
-9.265831e-10
1.601353e-09
-6.747699e-10
1.289018e-09
-9.91894e-11
-7.488261e-10
2.111057e-09
-1.362231e-09
8.00328e-10
6.708196e-10
-1.471148e-09
1.862204e-09
-9.856552e-10
-8.765492e-10
-4.516637e-10
-1.201925e-09
1.653589e-09
-8.686422e-10
1.573318e-09
-7.046758e-10
2.386579e-09
-6.495061e-10
-1.737073e-09
1.878115e-09
-1.126861e-09
-7.512541e-10
1.436172e-09
3.976266e-10
-1.833799e-09
-3.111711e-09
-2.513153e-09
5.624864e-09
1.764714e-09
-5.340749e-09
3.576035e-09
-1.265676e-09
-4.454049e-10
1.581853e-09
1.030735e-09
-1.480212e-09
4.49477e-10
1.277259e-09
-1.311571e-09
3.431191e-11
-9.52785e-10
-1.030277e-09
1.636132e-09
-8.680613e-10
-1.671632e-09
2.156046e-10
-9.928685e-10
-4.460922e-10
1.438961e-09
9.224774e-10
1.524758e-09
-2.447236e-09
8.435969e-10
4.846387e-10
-1.328236e-09
1.797389e-09
-6.097221e-10
5.850416e-10
-6.092396e-10
1.501027e-09
-8.917877e-10
4.492474e-10
-1.700782e-09
9.640098e-11
1.464329e-09
-1.56073e-09
-1.215412e-10
1.478771e-09
-1.35723e-09
-6.582099e-09
1.785089e-09
4.79701e-09
-1.245026e-09
1.411841e-09
-1.668147e-10
-1.458161e-09
1.465765e-09
-7.603868e-12
1.592364e-09
-5.800392e-10
-1.012325e-09
-1.782381e-09
1.419335e-09
3.630469e-10
6.918039e-10
-1.816898e-09
1.125094e-09
-1.359033e-09
-8.423868e-10
-6.453532e-10
4.094234e-10
-8.776966e-10
4.682732e-10
1.379248e-09
-1.586451e-10
-1.220603e-09
-1.560854e-09
1.365959e-09
1.511176e-09
1.732174e-10
-1.684393e-09
-6.946437e-11
-1.543299e-09
1.303443e-09
-1.618467e-09
3.150245e-10
-8.181805e-12
1.550369e-09
-1.626958e-09
-3.074815e-10
-1.778593e-09
-3.249136e-10
2.103506e-09
-1.2777e-09
-1.273929e-10
-9.751779e-10
-1.055552e-09
7.052711e-11
1.477566e-09
-1.548093e-09
1.27626e-09
-1.705479e-09
-1.620462e-09
-3.033595e-10
1.923822e-09
1.862146e-09
-8.962428e-10
-9.659027e-10
-3.062598e-10
-4.665382e-09
4.971642e-09
1.382505e-09
-1.183058e-09
-1.994465e-10
-5.067289e-10
-1.215593e-09
1.722321e-09
-1.516473e-09
1.712302e-09
-1.958292e-10
-8.545128e-10
-6.094035e-10
1.463916e-09
-1.665372e-09
2.211231e-10
1.444249e-09
1.451119e-09
-1.414881e-09
-3.623769e-11
5.824511e-10
-1.634417e-09
3.254353e-10
-1.797889e-09
1.472454e-09
1.667934e-09
1.599578e-10
-1.827892e-09
1.747305e-09
-6.600118e-11
8.152868e-10
-2.238851e-09
1.423564e-09
-1.309298e-09
1.357032e-09
-4.773404e-11
-7.577715e-10
1.643987e-09
1.168371e-09
4.834182e-10
1.448078e-09
-9.247323e-11
-1.355605e-09
-4.940342e-09
5.52775e-10
4.387567e-09
-1.032693e-09
1.66856e-09
2.430178e-10
-1.859782e-09
1.616764e-09
3.703332e-11
1.414086e-09
-1.095276e-09
-6.93565e-10
1.788841e-09
5.190346e-10
1.373001e-09
1.726919e-09
-1.311893e-09
-4.15026e-10
1.912967e-09
-8.115772e-10
-1.10139e-09
-2.154856e-09
-1.410027e-10
2.295859e-09
-1.041937e-09
-4.683492e-10
1.510286e-09
1.526403e-09
-1.789347e-10
-4.379155e-10
1.601618e-09
-1.163703e-09
7.164537e-10
9.674193e-10
-1.683873e-09
1.185587e-09
-1.663109e-09
4.775219e-10
1.127822e-09
4.244195e-10
-1.552242e-09
-1.404892e-09
8.864754e-10
5.184169e-10
1.144568e-09
1.456074e-09
-5.379811e-11
-1.708195e-09
6.67235e-10
1.04096e-09
6.883998e-10
-2.078752e-09
1.390352e-09
5.680367e-10
-1.57389e-09
5.295698e-10
8.496783e-10
3.200843e-10
-1.758519e-09
6.498164e-10
-2.869804e-09
2.219987e-09
-1.438332e-09
-1.12931e-09
-4.471933e-10
1.576503e-09
-1.14737e-10
1.44582e-09
1.865511e-10
1.412237e-09
-1.598788e-09
-1.311924e-09
-4.442561e-10
1.75618e-09
-5.231159e-11
1.291055e-09
-1.238743e-09
1.293031e-09
-8.721339e-10
-4.208967e-10
1.844472e-09
-1.772924e-09
-7.154788e-11
3.686804e-09
2.275316e-10
-3.914336e-09
-1.666926e-09
-3.462757e-10
-3.268338e-09
2.505576e-09
7.627613e-10
-1.660148e-09
2.601546e-10
1.399993e-09
1.345368e-09
-1.783284e-09
-1.244557e-09
1.228001e-10
-1.590301e-09
1.467501e-09
1.4937e-09
-1.631044e-09
1.373444e-10
1.49241e-09
-3.967239e-10
-1.095686e-09
1.348999e-09
-1.417756e-09
6.875771e-11
-1.2625e-09
-3.848481e-10
2.574755e-10
-1.355704e-09
1.098229e-09
5.839988e-10
-1.720515e-09
1.136516e-09
-2.222543e-10
1.517703e-09
-1.295449e-09
-7.408507e-11
1.280177e-09
1.49187e-09
-4.938681e-10
-1.041579e-09
1.210605e-09
-1.690266e-10
-1.321694e-09
1.003165e-09
3.185288e-10
-1.588096e-09
5.731882e-10
1.014908e-09
-9.907944e-10
1.208944e-09
-2.181494e-10
-1.100092e-09
-7.417777e-11
1.537687e-09
-4.906618e-10
-1.0798e-09
1.674581e-09
1.608956e-09
-4.218059e-10
-1.18715e-09
-9.304778e-10
-7.780547e-10
-2.980449e-10
1.212593e-09
-9.145484e-10
-1.032047e-09
-8.95159e-10
1.927206e-09
-1.223907e-09
1.009111e-09
2.147959e-10
-2.180877e-10
1.203028e-09
-1.593036e-09
8.167204e-10
7.763152e-10
1.62939e-09
-1.400308e-09
-2.290818e-10
3.866363e-10
1.044512e-09
-1.431148e-09
5.777091e-10
-1.985484e-09
1.407775e-09
-4.535212e-09
6.314491e-09
-7.968635e-10
1.892933e-09
-1.096069e-09
-3.24609e-09
1.194619e-09
-2.222721e-09
1.112372e-09
1.110349e-09
-8.463244e-10
3.462989e-09
-2.616665e-09
5.398618e-10
8.073014e-10
-1.347163e-09
1.844693e-09
-7.509768e-10
1.735793e-09
-9.848162e-10
1.857515e-09
-1.273516e-09
-1.309029e-09
-2.799402e-10
1.58897e-09
-1.592219e-09
2.088828e-09
-4.966091e-10
5.270583e-09
-4.233621e-10
-4.847221e-09
-1.833297e-09
8.175384e-12
1.974243e-09
-1.047956e-09
-1.932648e-09
1.183697e-09
-8.836306e-10
-7.175485e-10
1.601179e-09
1.945376e-09
-1.846195e-09
-9.918127e-11
1.522308e-09
-6.536103e-10
-8.686975e-10
1.874136e-10
1.208876e-09
1.488907e-09
8.72639e-11
-1.576171e-09
1.038894e-09
4.260201e-10
-1.464914e-09
-9.733197e-10
-8.82457e-10
4.801405e-10
-1.62263e-09
1.14249e-09
-5.069701e-10
1.720184e-09
-1.213214e-09
-2.014211e-09
-3.118744e-09
5.132955e-09
-1.641813e-09
8.101244e-10
8.316882e-10
-1.564049e-09
8.062777e-10
-6.452476e-10
1.735331e-09
-1.090084e-09
-6.327145e-10
3.70346e-09
-3.070745e-09
-1.508559e-09
-5.331215e-10
2.041681e-09
1.943912e-09
2.179654e-09
-6.957276e-10
-8.570248e-10
1.609435e-09
-6.58558e-10
1.777374e-09
-1.118816e-09
9.224338e-10
3.548249e-10
1.263474e-09
3.176339e-10
-1.581108e-09
1.293696e-09
4.087995e-10
-1.702495e-09
-1.329162e-09
1.568415e-09
1.566209e-09
4.925698e-10
-2.058779e-09
7.291596e-10
-1.77377e-09
1.044611e-09
-1.816986e-09
1.270541e-09
5.464443e-10
-1.166466e-09
-1.323269e-09
2.489735e-09
1.775525e-09
-2.459157e-09
6.836324e-10
4.810665e-10
-1.805726e-09
1.32466e-09
2.164348e-09
-8.152519e-10
-1.349096e-09
-5.673334e-10
-1.353915e-09
1.921248e-09
-4.07572e-10
-9.899591e-10
-8.585001e-10
-7.585785e-10
-1.008167e-09
-9.878513e-11
1.106953e-09
-9.340241e-10
1.415091e-09
-1.145927e-09
-8.051192e-10
1.951046e-09
1.231644e-09
-4.815414e-10
-1.124392e-09
1.605934e-09
1.76125e-09
-3.250784e-10
-5.195162e-11
-9.899855e-10
-3.103998e-10
-1.281819e-09
2.159739e-10
-1.763423e-09
1.547449e-09
-1.059421e-09
-6.996353e-10
1.759057e-09
8.102442e-09
-8.102442e-09
-1.777426e-10
1.408166e-09
-1.230423e-09
-7.289662e-10
1.408603e-09
-6.796373e-10
3.486743e-10
-1.809026e-09
1.460352e-09
-1.05318e-09
-8.592538e-10
1.597858e-09
-5.516499e-10
-1.046208e-09
-1.212237e-09
-2.030284e-10
1.415266e-09
4.174835e-10
1.700361e-09
-1.298824e-09
-4.015377e-10
-1.031377e-09
1.583342e-09
-1.57374e-09
4.104229e-10
1.163317e-09
1.152407e-09
7.236048e-10
-1.876011e-09
-1.043887e-09
1.548931e-09
-5.05044e-10
-1.052334e-09
2.167485e-09
1.886194e-09
-1.427016e-09
-1.426792e-09
1.450262e-09
-3.414821e-10
-7.945117e-10
1.135994e-09
-7.266909e-09
1.793085e-09
5.473825e-09
9.841483e-10
5.363666e-10
-1.520515e-09
8.83482e-10
-1.252646e-09
3.691645e-10
-1.833608e-09
1.005836e-09
8.277718e-10
7.556675e-10
-1.385447e-09
6.297794e-10
-1.534518e-09
6.222993e-10
9.12219e-10
2.79137e-11
1.533563e-09
-1.561477e-09
-1.10889e-09
2.185171e-09
-1.07628e-09
4.62297e-10
9.687735e-10
1.282968e-11
-9.816032e-10
-3.526994e-10
1.299638e-09
-9.469382e-10
-9.432394e-10
1.352663e-09
-8.853847e-10
2.053382e-09
-1.167998e-09
8.14212e-09
-6.496185e-09
-1.645935e-09
-1.166091e-09
-9.599536e-10
-4.378105e-10
-1.623535e-09
2.061345e-09
-7.602477e-10
-8.671308e-10
-1.367607e-09
8.794431e-11
1.279662e-09
1.861487e-09
-1.27365e-09
-5.878366e-10
1.343059e-09
-1.406427e-09
6.336849e-11
1.492159e-09
-1.339758e-09
1.767355e-09
-4.27597e-10
7.998607e-10
-1.548514e-09
2.879706e-10
1.260543e-09
-1.730238e-09
9.841674e-10
7.460709e-10
1.400216e-09
-5.250489e-09
4.994035e-09
2.564537e-10
-1.434492e-09
1.829222e-09
-1.508561e-09
-3.206608e-10
7.076012e-10
1.047493e-09
-1.755094e-09
1.4e-09
-1.501852e-09
1.01852e-10
-1.645936e-09
8.116664e-10
8.342694e-10
1.491636e-09
-3.280877e-10
-1.163549e-09
-1.76945e-10
-1.112146e-09
1.289091e-09
-3.116374e-09
6.978926e-09
-3.862552e-09
2.251533e-09
2.143198e-09
-4.394731e-09
-2.048017e-09
8.815504e-10
1.01081e-09
9.818261e-10
-1.992636e-09
-1.537528e-09
1.16767e-09
-1.815152e-09
5.299404e-10
1.285212e-09
1.785715e-09
-7.16371e-10
-1.069344e-09
-1.034878e-09
1.079802e-09
-4.492457e-11
-1.67504e-09
2.410597e-10
-1.071006e-09
1.378314e-09
-3.073083e-10
1.768209e-09
-7.284813e-10
1.456843e-09
3.044073e-10
-1.640796e-09
-3.499345e-10
1.990731e-09
6.748887e-10
-1.615485e-09
9.405963e-10
1.058138e-09
9.316546e-10
-1.989793e-09
-1.673274e-09
3.137178e-11
1.641903e-09
7.691786e-10
-2.31798e-09
1.548801e-09
7.461301e-10
7.670289e-10
1.321051e-09
-3.932205e-10
-9.278309e-10
1.985955e-09
-1.567335e-10
-3.079752e-10
1.373555e-09
-1.06558e-09
-1.711087e-09
1.14222e-09
-1.822623e-09
3.940729e-10
1.353232e-09
-1.804778e-09
1.404745e-09
4.000328e-10
-1.816318e-09
1.755217e-10
1.409325e-09
2.29982e-10
-1.639307e-09
1.483396e-09
2.872725e-10
-1.770669e-09
-1.9578e-09
1.607866e-09
3.676351e-10
-1.983818e-09
1.616183e-09
-7.642958e-10
-7.702224e-10
-1.178775e-09
1.041774e-09
-1.095622e-09
-3.892989e-10
1.484921e-09
-1.403089e-09
1.797161e-09
-1.77522e-09
7.697636e-10
1.005457e-09
-1.009448e-09
1.391076e-09
-3.816274e-10
-1.10263e-09
-4.826768e-10
1.585307e-09
-1.159697e-10
1.577801e-09
-1.461831e-09
-1.307054e-09
1.259155e-09
4.931164e-10
-1.752271e-09
-1.583266e-09
1.617835e-09
-3.456857e-11
-5.262372e-10
2.627134e-09
-2.100897e-09
1.835946e-09
-6.873233e-10
-1.148623e-09
4.195089e-09
-4.360202e-09
-1.71047e-09
1.64499e-09
6.547944e-11
1.917582e-09
-9.587563e-10
-9.588252e-10
-1.183234e-09
1.008218e-09
1.888779e-10
1.361975e-09
-4.108112e-09
3.475397e-09
-1.663272e-09
1.375916e-09
2.873558e-10
1.375461e-09
-4.530272e-10
-1.05268e-09
-1.187983e-09
2.240664e-09
-1.153088e-09
1.84603e-09
-6.929414e-10
-2.737529e-09
6.43312e-10
2.094217e-09
1.309249e-09
-2.128749e-09
8.195003e-10
5.878421e-10
8.51063e-10
-1.438905e-09
-7.502637e-10
-4.20254e-10
1.170518e-09
3.879842e-10
1.177236e-09
-1.56522e-09
1.174776e-09
-1.558065e-09
3.832889e-10
-3.954824e-10
-1.269889e-09
1.922415e-09
-1.177036e-11
-1.910645e-09
-2.001747e-09
3.884752e-10
1.275596e-09
-1.664071e-09
1.526227e-09
-1.134904e-09
-1.257651e-09
-2.965338e-10
1.554185e-09
7.761841e-10
7.887955e-10
3.255976e-10
-1.605036e-09
1.279439e-09
-1.727694e-09
6.049068e-10
1.388301e-09
-1.53056e-09
1.422596e-10
1.793644e-09
-6.939567e-10
-1.099687e-09
-1.376638e-09
4.486817e-10
9.279566e-10
-1.784218e-09
9.627054e-10
8.215129e-10
1.319474e-09
-1.558321e-09
-1.510648e-09
9.176783e-10
5.929693e-10
-1.039399e-10
2.103611e-09
-1.999671e-09
-7.155953e-10
1.699744e-09
1.325567e-09
-5.589841e-10
9.199593e-10
-1.885893e-09
9.659337e-10
-6.446456e-10
-4.24039e-10
1.068685e-09
-1.448128e-09
9.687438e-10
4.793841e-10
-7.760096e-10
-1.033161e-09
1.890549e-09
-6.582069e-10
1.568981e-09
-9.107741e-10
1.309816e-09
1.838838e-10
1.207328e-09
6.501864e-10
-7.872851e-10
-8.958874e-10
-5.158379e-10
1.444488e-09
-9.286501e-10
-6.173401e-10
1.432507e-09
-8.151666e-10
9.382637e-10
-1.834425e-09
-6.718541e-12
1.077307e-09
-4.924936e-10
1.88437e-09
-1.391877e-09
-1.13647e-09
3.838566e-10
-8.836589e-10
1.482461e-09
-5.988026e-10
-9.867725e-10
1.756153e-09
-2.024996e-09
1.699917e-09
1.317354e-09
-1.776968e-09
4.596139e-10
1.434541e-09
-1.534628e-09
1.000873e-10
1.360756e-09
8.732209e-11
-7.154538e-10
-7.75874e-10
-1.365363e-09
5.810576e-10
4.07724e-10
1.083912e-09
-6.138087e-10
-1.411187e-09
1.582895e-09
-1.760638e-09
-1.188195e-09
1.290483e-09
-1.022873e-10
4.206372e-09
-3.525666e-09
-6.80706e-10
-1.682711e-09
1.308077e-09
3.746345e-10
1.299401e-09
-1.477576e-09
1.781756e-10
-1.302972e-09
-3.602999e-10
-1.456626e-09
3.539967e-10
1.823381e-09
-1.329197e-09
-4.941835e-10
3.679493e-09
8.877303e-10
-4.567223e-09
1.033587e-09
1.375239e-10
5.763184e-10
-1.549089e-09
-4.664098e-10
1.081148e-09
-1.071677e-09
4.758481e-09
-1.275177e-09
-5.296014e-10
-2.177836e-09
3.125251e-10
1.865311e-09
-1.270128e-09
2.619609e-10
-1.271376e-09
1.371669e-09
1.437907e-09
8.743876e-10
-2.312295e-09
-2.628001e-10
3.457414e-10
2.04592e-09
-2.391661e-09
-7.501063e-10
-7.655325e-10
-2.682935e-09
3.448467e-09
-1.255106e-09
1.014315e-09
2.407909e-10
-1.912555e-09
6.380512e-10
1.274504e-09
2.260504e-10
-1.841883e-09
5.960652e-10
5.191643e-10
1.290364e-09
-1.809528e-09
1.429181e-09
-1.074956e-09
-8.643574e-10
-9.526284e-10
-5.660424e-10
1.006235e-09
-4.401923e-10
1.981064e-09
-1.159499e-09
-1.049975e-09
2.209474e-09
-1.584502e-09
-1.665491e-10
1.751051e-09
-1.335184e-09
3.713842e-10
9.638001e-10
1.943423e-09
-1.63555e-09
-3.078728e-10
1.259674e-09
6.024717e-10
1.702711e-09
-6.668845e-10
-1.035827e-09
1.034575e-09
-2.21076e-09
1.176185e-09
7.348435e-10
-5.919708e-10
-1.030531e-09
1.857625e-09
-1.271376e-09
-5.862487e-10
-1.595573e-10
1.393037e-09
-1.23348e-09
-5.760328e-09
8.414173e-09
-7.063417e-10
1.231761e-09
-5.254195e-10
-1.333631e-09
6.589508e-11
1.267736e-09
-1.16276e-09
1.441771e-09
1.721166e-09
-1.408642e-09
-3.125241e-10
-1.891037e-09
1.126741e-09
-2.000977e-09
9.272506e-10
-1.01708e-09
-1.009859e-09
1.93619e-09
-9.263311e-10
-1.06443e-09
2.012094e-09
-9.47664e-10
5.85998e-09
-4.745034e-09
2.546382e-09
5.376734e-10
-1.547122e-09
-6.756164e-10
-9.40987e-10
1.440937e-09
-1.288656e-09
-1.522805e-10
1.234136e-09
-3.645959e-10
-8.695399e-10
8.970302e-10
9.651742e-10
-7.765908e-11
1.608628e-09
-1.530969e-09
-8.44399e-10
1.036198e-09
-1.917995e-10
1.60429e-09
-1.300581e-09
-3.037096e-10
4.764173e-10
-1.436488e-09
-1.210029e-09
1.478044e-09
-2.680151e-10
1.095757e-09
-1.491373e-09
1.355376e-09
1.359975e-10
1.228387e-10
1.359618e-09
-1.482456e-09
1.253651e-09
-1.784687e-09
3.896972e-09
-2.168474e-10
-3.680125e-09
-2.393403e-09
-8.749341e-10
-1.447809e-09
-7.775599e-11
-8.401273e-10
-1.066878e-09
1.907005e-09
1.066943e-09
-1.440042e-09
3.730987e-10
-1.328139e-09
3.39263e-10
9.888759e-10
-1.886319e-10
-1.622147e-09
1.810779e-09
-1.738088e-09
1.645615e-09
9.448054e-10
1.075058e-09
8.064365e-10
1.151617e-09