/*--------------------------------*- C++ -*----------------------------------*\
| =========                 |                                                 |
| \\      /  F ield         | OpenFOAM: The Open Source CFD Toolbox           |
|  \\    /   O peration     | Version:  2406                                  |
|   \\  /    A nd           | Website:  www.openfoam.com                      |
|    \\/     M anipulation  |                                                 |
\*---------------------------------------------------------------------------*/
FoamFile
{
    version     2.0;
    format      ascii;
    arch        "LSB;label=32;scalar=64";
    class       volVectorField;
    location    "0.56";
    object      U;
}
// * * * * * * * * * * * * * * * * * * * * * * * * * * * * * * * * * * * * * //

dimensions      [0 1 -1 0 0 0 0];

internalField   nonuniform List<vector> 
4562
(
(0.0100726 0.0004071587 -6.614664e-26)
(0.009988126 5.217456e-05 0)
(0.01002506 0.0002001397 0)
(0.009983867 6.124862e-05 1.804707e-26)
(0.01070442 0.0001671224 0)
(0.01000319 9.262014e-05 -1.303978e-26)
(0.009572252 0.0003642303 3.820204e-26)
(0.009829093 0.0002033884 -9.731953e-27)
(0.009853889 8.666587e-05 -8.493546e-26)
(0.009984463 6.622198e-05 1.593953e-26)
(0.009781169 0.000684757 -4.580927e-25)
(0.01009694 0.0002887615 1.480141e-26)
(0.009896101 0.0003510398 0)
(0.009987592 0.0001989918 0)
(0.01113223 0.0005156373 8.347522e-25)
(0.0100641 4.245971e-05 2.810365e-27)
(0.009693186 0.0001401245 1.63423e-25)
(0.01015943 0.0002078659 -3.23429e-26)
(0.009413439 0.0002966838 4.321177e-25)
(0.01004515 0.0002399852 0)
(0.009888237 0.001195348 2.234024e-24)
(0.009933456 0.0002128642 0)
(0.009704337 0.0005967359 0)
(0.01001245 6.181429e-05 -9.714589e-27)
(0.01001592 8.973741e-05 0)
(0.009958431 0.0004810555 1.946251e-25)
(0.009817784 0.0001614597 0)
(0.009905631 0.0002322985 -1.838285e-25)
(0.009435218 0.0009520688 0)
(0.01051773 0.0008050803 0)
(0.01002865 0.0003880974 5.494985e-26)
(0.01002063 6.873969e-05 4.469644e-27)
(0.009992691 0.000167813 4.899854e-26)
(0.00965498 0.0003681508 2.486116e-25)
(0.01026444 0.0004153624 6.379398e-26)
(0.01015837 9.629211e-05 -3.63724e-26)
(0.009577984 0.001044726 -8.917435e-25)
(0.009904392 8.938641e-05 0)
(0.01003217 6.003007e-05 -5.031616e-27)
(0.01009207 0.0001562831 1.379513e-26)
(0.009726234 0.0001191917 0)
(0.009963606 3.916145e-05 -2.284705e-27)
(0.009704434 0.0002323686 -2.202095e-25)
(0.0099781 9.553679e-05 -2.348984e-26)
(0.01000892 5.960329e-05 3.139169e-26)
(0.009746062 0.0002166734 -4.907938e-25)
(0.01001155 8.989773e-05 0)
(0.009970526 4.193692e-05 0)
(0.009959315 7.07163e-05 0)
(0.01016611 0.0005297459 -5.615501e-26)
(0.009960763 8.522008e-05 0)
(0.0100033 0.000380315 1.734835e-26)
(0.01023746 0.000106183 1.805488e-25)
(0.009590943 0.0003953211 0)
(0.0100486 9.262827e-05 -4.164767e-26)
(0.01099486 0.0006918922 0)
(0.009604553 0.0003690287 1.529986e-25)
(0.009466483 0.0004887941 8.471389e-25)
(0.009648055 0.0003226645 -7.178665e-25)
(0.01094661 0.0005796537 0)
(0.00999963 0.0001271015 3.302921e-27)
(0.009640746 0.0008911608 -6.121718e-25)
(0.009781078 0.00034354 -2.567672e-25)
(0.01012382 0.0004008601 6.072557e-27)
(0.009763054 0.0001094777 2.493289e-26)
(0.01058844 0.0009012766 5.782531e-25)
(0.009944358 0.0003313233 -1.60116e-25)
(0.00995954 0.0004583369 5.907195e-26)
(0.01015907 0.0005044264 0)
(0.009966601 0.0002035981 0)
(0.009522722 0.0005578777 0)
(0.009919547 0.0001231128 -5.115112e-26)
(0.01044132 0.0005886664 0)
(0.009858352 0.0001029558 -4.577257e-26)
(0.009731671 0.0002663452 1.797501e-25)
(0.01060973 0.0005781516 3.944143e-26)
(0.01005484 0.0003507373 5.330083e-26)
(0.009877169 0.0001601674 -9.951398e-26)
(0.01008156 0.0005300539 0)
(0.01101463 0.0003763465 4.925158e-25)
(0.01095099 0.0001374282 1.67897e-24)
(0.01036666 0.0002933276 -1.148717e-25)
(0.01034595 0.001074693 6.245838e-25)
(0.009963714 0.0001220668 0)
(0.009670686 0.0003805688 0)
(0.009946736 6.132403e-05 -2.596038e-27)
(0.01002318 5.616426e-05 -7.151278e-27)
(0.009937052 0.0001940737 -6.83303e-26)
(0.009851102 0.0001721829 0)
(0.009961461 0.0003220883 -9.453972e-26)
(0.009917596 0.0001137827 0)
(0.01001325 4.584084e-05 0)
(0.009877705 0.0002103311 -4.96052e-26)
(0.01000012 0.0001751294 -2.554872e-26)
(0.01013993 0.0007340245 0)
(0.009865014 0.0007971674 0)
(0.0100182 5.1955e-05 0)
(0.009890219 7.679297e-05 1.076243e-26)
(0.009403543 0.0007326188 0)
(0.009629186 0.0004390756 4.073345e-26)
(0.009981091 0.0002364929 2.352011e-26)
(0.009500844 0.0007218282 3.204144e-25)
(0.00997609 0.0001259273 8.108287e-26)
(0.009952083 0.001201753 0)
(0.01001645 0.0003518196 2.925814e-26)
(0.01004812 0.0008727722 0)
(0.009844435 0.0001813433 -6.757145e-26)
(0.009995536 0.0002272944 0)
(0.009984619 0.0001161422 1.335529e-26)
(0.01007274 6.458255e-05 0)
(0.009897494 0.0004601994 1.125191e-25)
(0.01026921 0.0006702507 -1.293332e-25)
(0.01002511 0.0003354521 -3.892565e-26)
(0.009474992 0.000316948 0)
(0.01060263 0.000917546 0)
(0.009965036 3.848222e-05 4.757266e-26)
(0.01088044 0.0003886542 -5.996063e-25)
(0.009861195 0.0002341991 1.830477e-25)
(0.00951179 0.000873747 -4.589941e-25)
(0.009927164 0.0002772075 -2.147454e-25)
(0.0102999 0.0004148292 -1.546915e-25)
(0.009801156 0.0001085118 1.38946e-25)
(0.009949336 7.260625e-05 1.67039e-27)
(0.009979955 0.0001058659 6.563669e-27)
(0.00977573 0.0004376064 2.413527e-25)
(0.009985822 0.0001614745 -4.779575e-26)
(0.00993889 0.0001605555 -4.713393e-26)
(0.009988788 0.000129378 8.843448e-27)
(0.01015721 0.0007195489 -1.330936e-25)
(0.01014029 0.0005729886 -3.252338e-26)
(0.0101277 0.000325063 -3.593387e-28)
(0.009954078 8.237838e-05 -1.363516e-26)
(0.01005687 0.0008601286 -1.440603e-25)
(0.009989455 4.701787e-05 -8.177345e-27)
(0.01003543 0.0003499286 -1.941211e-26)
(0.01087509 0.0007731973 7.193886e-25)
(0.009547447 0.0005125486 0)
(0.009949361 0.00016051 -3.647045e-26)
(0.01034081 0.0001590114 0)
(0.009997205 5.890037e-05 -6.710985e-28)
(0.01039045 0.001017661 0)
(0.01042786 0.0003442824 -1.112779e-25)
(0.01003129 9.529737e-05 -1.96542e-26)
(0.01089041 0.0008178962 5.864424e-25)
(0.009976524 0.0005657211 0)
(0.009998848 0.0002130159 0)
(0.009696602 0.0004714577 0)
(0.00994528 0.0001196134 -4.723336e-27)
(0.01014862 0.0004046902 -1.617145e-25)
(0.01025835 0.0001360034 -4.066042e-25)
(0.009985237 9.260227e-05 0)
(0.009727159 0.0008660053 0)
(0.009977378 0.0002015387 0)
(0.01011426 0.0002492766 3.708179e-26)
(0.009997437 8.915584e-05 0)
(0.01027596 0.0003853433 7.357174e-26)
(0.009930677 8.434443e-05 0)
(0.01071544 0.000912797 1.863573e-24)
(0.01002427 0.0002704745 -4.27326e-26)
(0.009963982 7.884582e-05 -1.348077e-26)
(0.009931677 0.0004575283 -5.436282e-25)
(0.01061062 0.000552409 -7.711176e-26)
(0.01054788 0.0008358343 0)
(0.009959445 4.276013e-05 -3.585207e-26)
(0.009936315 0.0001105456 -7.002377e-26)
(0.01101821 0.0006735536 7.220696e-27)
(0.01003119 0.0001516997 -5.126142e-28)
(0.01001286 7.237438e-05 -1.120758e-26)
(0.009661668 0.0005845956 -2.551283e-25)
(0.0103188 0.0004643188 5.336575e-26)
(0.009974498 0.001183769 -4.283044e-24)
(0.01006841 0.0001966339 3.727281e-28)
(0.01026827 0.000745445 6.098678e-25)
(0.01002193 0.0001762465 0)
(0.01002596 0.0008100908 -4.777171e-25)
(0.01002931 0.0002623278 3.707618e-26)
(0.009959769 5.225732e-05 -9.289876e-27)
(0.009946157 7.431065e-05 1.277297e-26)
(0.00986197 0.0004089901 9.413761e-27)
(0.009894721 0.0001100609 0)
(0.009998388 6.586367e-05 0)
(0.009728126 0.0003502036 4.184737e-25)
(0.00968405 0.000458522 3.589809e-25)
(0.01113538 0.0004853885 -6.37499e-26)
(0.01017645 0.000744137 0)
(0.01000833 0.0002940613 -1.277961e-26)
(0.01005929 0.0009491178 -7.280251e-25)
(0.01007762 0.0003739621 -4.028535e-26)
(0.009910873 8.171457e-05 -3.074459e-27)
(0.0103902 0.0008926679 0)
(0.0100077 0.001016009 0)
(0.01031468 0.0009575059 1.335907e-24)
(0.01027814 0.0004372722 0)
(0.010007 0.0001559268 -6.180644e-27)
(0.01014711 0.000786175 0)
(0.009891095 0.0001128494 -1.095942e-25)
(0.009565819 0.0002198389 1.467909e-25)
(0.00964962 0.0004420255 3.833357e-25)
(0.01030926 0.0004810322 8.668521e-27)
(0.009977762 7.381904e-05 4.479687e-27)
(0.009948767 0.0001087902 3.46844e-27)
(0.009835301 0.0004717086 0)
(0.01005967 0.000324862 0)
(0.01030784 0.0008280549 6.052749e-25)
(0.009665858 0.0007905584 -3.023592e-25)
(0.01001598 0.0001383507 0)
(0.01074433 0.0007134648 5.264039e-26)
(0.01081164 0.0008083149 3.671415e-25)
(0.01022665 0.0004443882 2.604367e-25)
(0.009842982 0.0001329787 8.119968e-26)
(0.01001405 6.533218e-05 8.379499e-29)
(0.009857504 0.0008749391 0)
(0.00995087 5.98713e-05 -6.304099e-27)
(0.01002266 9.834865e-05 -2.965018e-27)
(0.01049603 0.0007935154 0)
(0.01078583 0.0008169979 1.676689e-25)
(0.009983449 0.0001235022 0)
(0.009983614 5.018253e-05 -2.162021e-27)
(0.01005814 0.0003861164 0)
(0.01076257 0.0009002527 3.970497e-25)
(0.009993996 0.0001230123 -2.208827e-26)
(0.01055215 0.001027836 3.027519e-24)
(0.01031858 0.0005575716 0)
(0.01004365 9.207294e-05 1.686736e-26)
(0.009749876 0.000614596 0)
(0.00974404 0.0004220368 -7.54353e-26)
(0.0099236 0.0008089408 -2.192217e-25)
(0.00983641 0.0006445005 8.999816e-26)
(0.010464 0.0009811583 0)
(0.009782539 0.0001689301 0)
(0.009988612 5.387311e-05 -1.595278e-27)
(0.009749164 0.0004488027 1.59396e-25)
(0.01015876 0.0003012166 2.441059e-26)
(0.009837737 0.0005317558 3.12033e-25)
(0.009899958 7.555639e-05 4.422864e-26)
(0.009536633 0.0004933016 0)
(0.009572004 0.0003265817 -1.515027e-25)
(0.01063647 0.0009311772 -4.485617e-26)
(0.01021096 0.0004326402 0)
(0.009824135 9.802727e-05 0)
(0.009793866 0.0001046841 -2.518182e-25)
(0.009898812 0.0002273671 -1.226169e-25)
(0.01021024 0.0008080995 0)
(0.009977425 0.0002879919 1.275715e-25)
(0.01005822 0.0002619764 4.74243e-27)
(0.01094258 0.0006504313 -4.677192e-26)
(0.009894842 0.000162384 4.911116e-26)
(0.009680362 0.0007247884 -3.625724e-25)
(0.01005693 0.00037525 -1.768979e-26)
(0.00995292 5.788746e-05 -5.167527e-28)
(0.009990878 5.707971e-05 1.915263e-26)
(0.009959787 0.0001951476 -1.030588e-25)
(0.009977724 0.0001576367 1.224307e-26)
(0.009960143 0.000116074 1.862142e-26)
(0.01003247 0.0001225263 3.983351e-26)
(0.01005277 0.0001844045 -3.113261e-27)
(0.009994141 9.43026e-05 0)
(0.009761125 0.0003084454 -7.591751e-25)
(0.009786896 0.0001088261 1.230478e-25)
(0.009704129 0.0009419872 -7.804849e-25)
(0.01017302 0.0009858946 -6.048514e-25)
(0.009882503 9.917977e-05 3.759189e-27)
(0.01014415 0.0003136612 3.502029e-26)
(0.01001316 0.0001707659 -3.686715e-27)
(0.01056622 0.0006505822 1.286563e-26)
(0.0100343 0.0003386735 3.392945e-26)
(0.01000116 5.075499e-05 0)
(0.01012972 0.0004202853 -1.512811e-26)
(0.01003443 8.992101e-05 -2.480528e-26)
(0.0100194 4.915256e-05 2.208744e-26)
(0.009969672 5.157532e-05 0)
(0.009935043 0.0001851792 8.99817e-27)
(0.009854225 0.0003131574 9.397944e-26)
(0.01036374 0.0003300434 -1.566357e-25)
(0.01061161 0.0003602716 3.573941e-26)
(0.009980325 5.798522e-05 0)
(0.01001225 8.133906e-05 1.332996e-27)
(0.00998807 8.595296e-05 -9.91703e-27)
(0.01005313 0.0002257515 8.549853e-26)
(0.01084645 0.0005655091 -1.242156e-25)
(0.00994329 0.0003768525 1.16462e-25)
(0.01002372 4.819116e-05 1.509042e-26)
(0.009836865 0.000214875 0)
(0.009907052 0.0002164411 -5.474529e-26)
(0.01022365 0.001069567 5.74277e-25)
(0.01005576 0.0001320691 6.604282e-27)
(0.01002905 0.0001278781 8.547782e-26)
(0.009976825 8.998124e-05 3.45666e-26)
(0.00998767 0.0001043378 3.819667e-26)
(0.009494957 0.0005503072 0)
(0.0100006 0.0005001539 0)
(0.009976681 0.0001898695 0)
(0.009799394 0.0006545807 -1.520902e-25)
(0.01020831 0.0007774828 0)
(0.009962871 0.0001060676 -2.460021e-26)
(0.009781335 0.0007091982 3.790488e-25)
(0.009888794 0.0007231401 3.688108e-25)
(0.009990827 0.000161851 5.574978e-26)
(0.009592823 0.0009456023 1.888529e-25)
(0.01044435 0.0002130031 -9.131367e-26)
(0.01008739 0.0002029759 3.365021e-26)
(0.009912546 0.0002702699 1.269163e-26)
(0.01009719 0.0004849285 3.137985e-26)
(0.01057496 0.0008551507 0)
(0.01028594 0.000134347 1.158048e-25)
(0.009769181 0.000994146 -5.964711e-25)
(0.009630801 0.001034464 1.194848e-24)
(0.01002754 0.0001122745 0)
(0.009852411 0.0003754554 0)
(0.009806796 0.0003964205 2.010546e-25)
(0.009859973 9.368292e-05 -1.415403e-25)
(0.01024597 0.000329377 1.236081e-26)
(0.01069732 0.0008866318 0)
(0.009451749 0.0006804124 9.15784e-25)
(0.009909535 0.000403466 -1.848399e-25)
(0.01008361 0.0002573346 -5.846945e-27)
(0.009960215 6.229424e-05 -1.339322e-26)
(0.01002962 6.139597e-05 0)
(0.01030958 0.0006078892 -1.033275e-26)
(0.009949433 5.003005e-05 -5.814437e-27)
(0.009943431 6.506082e-05 1.207284e-26)
(0.01111395 0.0004959685 -1.101975e-24)
(0.009993563 7.961913e-05 -3.394235e-27)
(0.009966994 9.96875e-05 0)
(0.009781214 0.001048493 0)
(0.009870014 0.0002381242 -2.807495e-27)
(0.009738681 0.0006407899 0)
(0.009889351 0.0006096526 -2.54224e-25)
(0.009928581 8.825663e-05 -9.004867e-28)
(0.009775891 0.0008004126 4.93579e-25)
(0.01003917 0.000174571 1.655621e-26)
(0.01013172 0.0001664745 0)
(0.01002924 0.0002195108 -1.396177e-26)
(0.01005357 0.0002033595 -5.418231e-26)
(0.009395944 0.0004931564 5.680661e-25)
(0.009419774 0.0004836595 -8.756585e-25)
(0.01000882 7.3789e-05 -1.392747e-28)
(0.01015519 0.0008916531 7.612639e-25)
(0.01061684 0.0008983076 0)
(0.01046623 0.001002773 0)
(0.01034004 0.0008108127 -5.453133e-25)
(0.01038924 0.0006413668 0)
(0.01032835 0.000941889 -9.403117e-25)
(0.009940021 0.0003055204 -4.368268e-26)
(0.009957564 5.838622e-05 0)
(0.009992587 6.691181e-05 4.806649e-27)
(0.009984272 4.727045e-05 -8.183185e-27)
(0.009857909 0.0003557938 -3.949119e-26)
(0.009569966 0.0006968044 1.116865e-25)
(0.009882856 0.0001254015 0)
(0.01044032 0.0008254629 5.759066e-25)
(0.009959371 0.0003465126 -1.280751e-25)
(0.01001944 9.406682e-05 -1.579233e-27)
(0.00991761 7.899279e-05 5.451965e-26)
(0.01001159 4.583633e-05 0)
(0.009877215 0.0001669478 6.349668e-26)
(0.009937452 0.0001216576 0)
(0.009950919 0.0002195966 0)
(0.009752622 0.0001756164 -1.327877e-25)
(0.00992889 8.068867e-05 -2.495197e-27)
(0.009934168 8.50626e-05 0)
(0.009984737 7.033256e-05 0)
(0.01000914 6.158394e-05 1.874912e-27)
(0.01011227 0.0001704089 5.391337e-27)
(0.009933526 0.0001569705 8.909971e-26)
(0.009790451 0.0002073556 3.708954e-25)
(0.009839344 0.0001031976 0)
(0.00980598 0.0002672905 1.059782e-25)
(0.009845972 0.0002347527 1.249929e-26)
(0.009910131 0.0001744237 -4.893681e-26)
(0.009706216 0.0001616448 0)
(0.00965186 0.000202088 5.210484e-25)
(0.009686749 0.0001806969 5.081499e-25)
(0.009801206 0.0009006711 0)
(0.01022462 0.000684682 -7.683164e-26)
(0.0100098 5.17196e-05 0)
(0.009628335 0.0002601821 0)
(0.009902085 0.001170203 0)
(0.009946816 0.0002782356 0)
(0.009970135 0.0002233025 0)
(0.009999495 0.0001194401 5.686617e-26)
(0.01010885 0.0004570698 0)
(0.009900108 0.0007723256 0)
(0.0100142 5.91002e-05 -1.260231e-26)
(0.01022237 0.0005218186 -1.810353e-25)
(0.009857611 0.000783262 2.756246e-25)
(0.01017477 0.001027761 -2.339666e-24)
(0.01000647 4.777213e-05 4.661375e-27)
(0.009961838 0.0001361202 7.661505e-27)
(0.009913264 0.00015679 4.238608e-26)
(0.009927407 0.0001658186 1.083872e-27)
(0.009930427 0.0001281841 -9.946645e-27)
(0.009968672 4.565578e-05 0)
(0.01021683 0.0005923294 -7.075563e-26)
(0.01071578 0.0003013509 8.678221e-25)
(0.01056478 0.0004412891 5.00933e-25)
(0.009552149 0.0003333603 -5.328231e-25)
(0.009434223 0.0006555384 7.545386e-25)
(0.009975705 8.524592e-05 1.65288e-26)
(0.009462879 0.0002255206 8.829001e-26)
(0.01018774 0.0009979895 -1.753292e-26)
(0.009837945 0.001230161 2.52297e-24)
(0.009647851 0.0002164806 -4.159044e-25)
(0.01008266 0.0003167897 -1.834546e-26)
(0.01103296 0.000525458 0)
(0.01012552 0.0004934027 0)
(0.01023228 0.001149422 0)
(0.009403726 0.0005194434 5.887933e-25)
(0.00977347 0.001187936 0)
(0.009985595 0.0001326677 0)
(0.01003875 0.000480635 0)
(0.01000782 0.0001815233 0)
(0.01005091 2.502202e-05 0)
(0.009976729 0.0004251281 1.935909e-26)
(0.0100286 0.000504279 -1.388026e-26)
(0.009995652 7.507307e-05 0)
(0.009598458 0.0002281854 -3.123746e-27)
(0.009971933 0.0001734361 3.748823e-26)
(0.01001593 0.0001761602 1.22304e-26)
(0.009967171 0.0002098188 -4.703554e-26)
(0.009914937 0.0001302743 0)
(0.009879028 8.138206e-05 -5.356573e-27)
(0.009624166 0.000194926 0)
(0.009757403 0.0002813466 -2.087698e-26)
(0.009978828 4.353901e-05 1.053681e-25)
(0.009987832 0.0002735656 -3.963293e-26)
(0.009997932 8.673864e-05 3.976248e-30)
(0.009733031 0.0002219341 7.009827e-26)
(0.009770419 0.000148671 -5.761184e-26)
(0.009881561 0.0001297343 0)
(0.009901419 9.382293e-05 0)
(0.009829409 0.0002650633 0)
(0.009613819 0.0002531138 -9.129128e-26)
(0.00976567 0.0001290858 0)
(0.009793611 0.0001422595 0)
(0.01011086 0.0001097757 4.250136e-26)
(0.01002447 7.975322e-05 5.685382e-28)
(0.009967498 0.0001156729 1.051544e-26)
(0.00944521 0.000457292 0)
(0.009820857 0.0004475753 9.149814e-26)
(0.01001586 0.0002064827 0)
(0.01001538 0.0001138404 -3.848007e-27)
(0.009526598 0.0007371192 0)
(0.01000498 0.0006807872 2.1339e-25)
(0.01107481 0.0005830093 0)
(0.009949135 6.957905e-05 1.594919e-27)
(0.01045469 0.001023269 0)
(0.009990344 6.151001e-05 0)
(0.009840619 0.0001274296 -9.419095e-26)
(0.009975443 0.0001215809 1.506364e-26)
(0.009811055 0.000305571 0)
(0.01004665 3.469361e-05 0)
(0.01011205 0.0007340418 -4.025617e-26)
(0.0102891 0.0006399673 7.533808e-26)
(0.01001661 0.0001100396 -1.134612e-26)
(0.00992297 7.656329e-05 -2.675937e-26)
(0.01082856 0.0008678234 -3.547778e-25)
(0.009691382 0.0002841975 -5.062548e-26)
(0.009633639 0.001206177 1.238115e-24)
(0.01013562 0.0002358483 6.628179e-26)
(0.01081797 0.0007201791 7.884386e-26)
(0.01000122 0.0001170279 -7.718826e-26)
(0.009881803 0.0001801062 7.507138e-26)
(0.009493524 0.0005888199 -5.457618e-25)
(0.009455355 0.0005208069 0)
(0.009962082 5.86469e-05 0)
(0.009981226 5.361727e-05 2.449306e-26)
(0.009987672 0.0001243055 4.718029e-26)
(0.01078242 0.0008039802 6.69613e-26)
(0.009822013 0.0001273407 0)
(0.009946898 0.0001353437 -9.607608e-26)
(0.009836315 0.001209302 0)
(0.00988289 7.951607e-05 1.041322e-25)
(0.009905529 6.832315e-05 0)
(0.01074194 0.0004656392 -4.439922e-25)
(0.009854006 0.000238717 -1.213338e-26)
(0.0099234 0.0002902506 0)
(0.009902456 0.0003450899 0)
(0.009823119 0.0004126374 1.742951e-25)
(0.00989129 0.0004381774 1.204534e-25)
(0.01003712 0.0003092414 -8.226948e-26)
(0.01007797 0.0008010572 3.422029e-25)
(0.00986618 0.0004516709 -2.024356e-25)
(0.0109283 0.0004472964 0)
(0.01015303 0.0005817584 7.044889e-26)
(0.0104441 0.0004938665 -1.298007e-25)
(0.01049799 0.0006121736 -7.66502e-28)
(0.009875087 0.0001783573 -4.309357e-26)
(0.009828909 0.0002105316 0)
(0.01004047 0.0001864271 -5.452926e-27)
(0.01000406 5.193813e-05 4.995437e-27)
(0.00999101 4.868889e-05 4.999055e-27)
(0.01003112 0.0002322624 2.556002e-26)
(0.009756446 0.0003199511 -9.529485e-26)
(0.009858312 0.001018288 0)
(0.0100758 0.0002354683 4.254839e-26)
(0.01001412 0.0004171909 -8.621424e-26)
(0.009959324 5.012043e-05 -2.555374e-27)
(0.01059676 0.0008855314 -6.471335e-25)
(0.01051954 0.000826658 0)
(0.01054445 0.0007835805 5.661654e-25)
(0.01040241 0.000684043 0)
(0.01039517 0.0007965789 -4.575036e-26)
(0.01020332 0.0008222052 3.370043e-26)
(0.01007741 0.0009341469 1.281341e-24)
(0.0102674 0.0009686497 -3.378792e-25)
(0.0106967 0.0007396798 0)
(0.01034055 0.0009628046 -4.226136e-25)
(0.01063218 0.000856743 -7.226271e-27)
(0.01077689 0.0008661068 7.425573e-25)
(0.01049945 0.0007591528 0)
(0.01034309 0.0007988088 4.730695e-25)
(0.01030201 0.0007453519 0)
(0.01029234 0.0007828543 -7.571396e-26)
(0.009877455 0.0001121111 5.654184e-27)
(0.01023777 0.0006327141 -2.293867e-25)
(0.01061097 0.0003195223 -2.801674e-25)
(0.009892287 9.702173e-05 0)
(0.01064228 0.0005326756 0)
(0.01006487 0.0001544319 0)
(0.01003408 5.505189e-05 -2.276582e-26)
(0.009933796 0.0008705849 0)
(0.01026789 0.0006553656 8.771587e-26)
(0.009898255 0.000633622 2.65145e-25)
(0.01006801 0.0002365143 0)
(0.0097497 0.0003372577 0)
(0.01057038 0.000990627 -8.882054e-25)
(0.0101966 0.0001287902 0)
(0.01003062 0.0001152206 0)
(0.009645987 0.0001773526 0)
(0.009433671 0.0002003183 2.207487e-25)
(0.009728442 0.001028851 2.350435e-27)
(0.009750002 0.0001417258 -1.005575e-25)
(0.009911707 0.0008375829 -4.5398e-25)
(0.009987021 8.372762e-05 -7.985781e-28)
(0.009918234 0.0004979393 0)
(0.009872868 0.0002853033 2.407627e-25)
(0.01023831 0.0006926917 7.658635e-26)
(0.009949208 0.0006844698 -3.193477e-25)
(0.01002885 0.0005586414 1.656119e-25)
(0.01069129 0.0003766147 5.478956e-25)
(0.009855423 0.0001289253 0)
(0.009833508 0.0001260398 0)
(0.009995205 9.946662e-05 1.659962e-26)
(0.01006454 8.394757e-05 -2.096401e-26)
(0.009901867 0.000154154 3.653879e-26)
(0.009688692 0.0001273287 -1.396408e-25)
(0.009818756 0.0005198921 -3.44258e-25)
(0.009792618 0.0004372759 -8.894252e-25)
(0.009456275 0.000284741 0)
(0.009483909 0.0002237428 7.399128e-25)
(0.009435472 0.000391275 -1.435896e-25)
(0.009888162 0.000406285 -1.048262e-25)
(0.009589896 0.0003380713 2.394367e-25)
(0.009921966 0.0003573678 -6.300182e-26)
(0.009686102 0.0006764316 4.889845e-25)
(0.00987118 0.0001052816 0)
(0.01002825 5.629996e-05 5.560173e-27)
(0.01037047 0.0006184327 0)
(0.01011229 0.0003749899 9.806241e-26)
(0.009870986 0.0004764837 2.224572e-25)
(0.01004453 0.0002553386 -4.571925e-26)
(0.009896151 0.0003633233 0)
(0.01000589 4.648731e-05 8.968489e-27)
(0.01000053 5.971769e-05 1.067275e-26)
(0.01010066 0.0003781985 0)
(0.00994941 8.500566e-05 9.317914e-27)
(0.009921244 0.0001185662 7.677576e-26)
(0.009923332 0.0001570883 -6.983854e-26)
(0.01022057 0.0005753401 -5.232467e-26)
(0.01083 0.0007267264 -4.816025e-26)
(0.0105657 0.001003727 0)
(0.009974318 0.0001102501 0)
(0.009620396 0.0004824941 1.020751e-24)
(0.01010577 6.93538e-06 -3.279647e-28)
(0.01013753 0.0006217118 1.821167e-26)
(0.01013686 0.0005246631 -1.118902e-25)
(0.01009691 0.0004116382 6.617379e-26)
(0.009937989 0.0001665563 -7.850856e-26)
(0.009949625 0.0001810443 8.490964e-26)
(0.009992154 0.0004114122 7.942786e-26)
(0.009902829 0.0004484373 -9.831715e-26)
(0.009985403 7.465363e-05 0)
(0.009863517 6.983321e-05 0)
(0.009957873 0.0005882292 0)
(0.009967651 6.556093e-05 3.93324e-27)
(0.009997592 6.21663e-05 0)
(0.009684625 0.0001688647 -2.170554e-25)
(0.01001444 0.0002706811 -3.397457e-26)
(0.009847378 0.0004065547 -3.282768e-25)
(0.009732104 0.0007341477 -6.289282e-26)
(0.01093228 0.0002545874 0)
(0.009591506 0.0006442763 -1.472894e-24)
(0.009748755 0.0008909953 9.449542e-25)
(0.01021275 0.001138176 -1.588874e-24)
(0.01016501 0.00105676 -3.445659e-24)
(0.0104552 0.0009353085 -1.222312e-24)
(0.01002308 0.000140179 -1.304193e-26)
(0.01008255 0.0005971495 -7.941851e-25)
(0.009986429 7.23342e-05 0)
(0.009666763 0.0008448275 1.255344e-25)
(0.009603817 0.0008483807 1.506249e-24)
(0.009918392 0.0001306049 0)
(0.01007726 0.0006592663 -2.074397e-25)
(0.0101913 6.962913e-05 0)
(0.009832859 0.000549587 -2.281416e-25)
(0.009803099 0.0002278593 0)
(0.01001385 4.661075e-05 -2.821749e-26)
(0.01000672 0.000119437 0)
(0.01044051 0.0005380192 -1.536327e-26)
(0.00989551 0.0001934593 1.587941e-26)
(0.0101375 0.0003956271 -1.775353e-26)
(0.01089545 0.0006768143 -4.045462e-27)
(0.01091965 0.0006549134 0)
(0.009991884 0.0003700655 0)
(0.009671667 0.00116947 1.531698e-24)
(0.00987503 0.0004392647 -1.288372e-25)
(0.01052711 0.000389595 6.460528e-25)
(0.010002 0.0004208454 0)
(0.01005821 0.000144074 0)
(0.01010873 0.000278612 0)
(0.01000529 7.133008e-05 2.493166e-27)
(0.01000109 9.641716e-05 7.769439e-27)
(0.01001756 0.0001026387 -3.343793e-26)
(0.01003231 0.0001664771 2.198843e-26)
(0.01010338 6.474713e-05 0)
(0.01003312 3.90491e-05 0)
(0.01002627 5.824675e-05 0)
(0.01020957 0.0004636215 -7.520278e-26)
(0.009762651 0.0006442884 7.361955e-25)
(0.009625818 0.0002984509 -2.691535e-25)
(0.009681399 0.001003919 0)
(0.00998403 8.747511e-05 -2.326454e-26)
(0.009742575 0.0001105966 -1.622947e-25)
(0.009920901 0.000174513 -4.133137e-26)
(0.009642066 0.0007789249 0)
(0.01020637 0.0005696696 -1.605906e-26)
(0.00968049 0.0003080301 -5.013448e-25)
(0.01006017 0.0009795396 -1.071776e-24)
(0.01005687 0.001042922 9.55842e-25)
(0.01002116 0.0001069787 -1.360658e-28)
(0.01004201 0.0001113534 0)
(0.009990702 0.001000048 9.405085e-25)
(0.009963775 0.0009770528 5.885268e-27)
(0.01005424 0.0001419874 -4.434444e-27)
(0.01004427 0.0001666198 0)
(0.009957251 0.0003303246 2.084413e-25)
(0.009962599 6.39711e-05 -2.252273e-26)
(0.009951316 6.78733e-05 -4.122396e-27)
(0.009954783 4.588515e-05 0)
(0.00968349 0.0003225176 2.77064e-25)
(0.009628742 0.0002355219 1.393079e-25)
(0.009671175 0.0003466817 -2.67491e-25)
(0.0096601 0.0002985134 -2.610208e-26)
(0.00996332 0.0002538595 0)
(0.01048162 0.0009370349 0)
(0.009845707 0.0001681571 0)
(0.009983204 0.0001003341 -6.387419e-28)
(0.009954798 6.830333e-05 2.155891e-26)
(0.009995328 0.0002525078 -3.031564e-26)
(0.009682936 0.0005538607 1.471205e-25)
(0.01007575 0.0004974765 5.921252e-26)
(0.01000936 4.930609e-05 -1.838682e-26)
(0.0100199 5.069724e-05 1.580787e-26)
(0.01004458 0.000211085 0)
(0.01004255 0.0001524466 4.96602e-29)
(0.01005309 0.0001101329 0)
(0.01000154 7.021404e-05 0)
(0.01102263 0.0004140479 7.845554e-25)
(0.009942715 0.0001041164 0)
(0.009585624 0.0004261908 -2.232095e-25)
(0.01001214 0.0001398016 -4.707329e-26)
(0.01001698 0.0001340678 -2.325639e-27)
(0.01007041 7.967086e-05 0)
(0.00998021 0.0005159543 -2.945759e-27)
(0.00948635 0.000208936 -7.160515e-25)
(0.009974342 4.319183e-05 2.39283e-26)
(0.009971238 4.415404e-05 0)
(0.01073792 0.0005917816 -8.455618e-27)
(0.01070266 0.0006734356 3.175617e-26)
(0.009960059 0.0001449786 6.49656e-26)
(0.009928528 6.769152e-05 -1.858762e-26)
(0.01003492 0.0002059729 9.39624e-27)
(0.0100821 0.0005585867 -1.299024e-25)
(0.01001937 0.0002130561 -3.249305e-26)
(0.009971755 7.773203e-05 7.146699e-26)
(0.01076083 0.0008858594 -1.58374e-24)
(0.009882709 0.0001989348 -1.320104e-25)
(0.01000802 0.0001704539 -4.427449e-27)
(0.009991215 0.0001792352 0)
(0.009976846 0.0001833761 -4.573187e-27)
(0.009960562 0.0001522709 -4.342289e-27)
(0.01001622 6.644545e-05 1.152518e-27)
(0.01056386 0.000722713 7.098484e-26)
(0.009804041 0.0007811686 -5.659917e-25)
(0.01019263 0.0005483661 -2.394556e-26)
(0.01021037 0.0004861202 9.840391e-27)
(0.009865389 0.0003177955 -2.035058e-25)
(0.009992438 4.652242e-05 -6.772014e-27)
(0.01060157 0.0007249855 1.531368e-26)
(0.009572704 0.0006237506 -1.465855e-27)
(0.01008898 0.0002886561 -2.733958e-26)
(0.01011065 0.0002965228 2.506632e-26)
(0.009981886 4.866859e-05 1.286366e-26)
(0.009989696 6.947611e-05 0)
(0.009850607 0.0001339945 -6.667241e-26)
(0.01001045 5.882143e-05 -2.882486e-26)
(0.01006138 0.0001890143 -1.675177e-26)
(0.01000504 5.085402e-05 -1.438787e-27)
(0.01006343 0.000229557 -7.057177e-27)
(0.009581819 0.001062654 1.103901e-24)
(0.00973022 0.0009690582 -4.558594e-25)
(0.01025827 0.001041986 -1.415162e-24)
(0.009851155 0.0001013616 0)
(0.009806243 0.0003836341 -2.329406e-25)
(0.0099278 0.0001442808 4.649733e-27)
(0.009445855 0.001179777 0)
(0.009976526 5.266404e-05 0)
(0.01010718 0.0002513414 -4.404231e-27)
(0.01023893 0.0005621691 -3.016579e-26)
(0.009858508 0.0002945839 -2.206301e-25)
(0.009879424 0.0003349455 -1.125294e-26)
(0.009821143 0.0002966753 -4.633156e-26)
(0.00950076 0.000893133 0)
(0.0102048 0.0004445069 1.946318e-26)
(0.01001782 9.900499e-05 7.915448e-27)
(0.01025208 0.0005665345 -2.686771e-26)
(0.01011784 0.000633086 -1.265397e-25)
(0.01074354 0.0007808018 0)
(0.01092011 0.0005373962 0)
(0.01046626 0.0005621558 1.077205e-25)
(0.01001244 5.067265e-05 0)
(0.009977361 0.0005320507 -1.755021e-25)
(0.01006925 0.0005103266 -4.786103e-26)
(0.009500141 0.0004387681 4.005423e-25)
(0.01096687 0.000330499 5.755754e-25)
(0.009573484 0.0009330793 0)
(0.00995204 4.270279e-05 -6.669334e-27)
(0.01030607 0.0001667394 2.723254e-25)
(0.01084686 0.0007814703 0)
(0.01088376 0.0004858604 0)
(0.009953067 4.713577e-05 -3.324543e-27)
(0.009712408 0.0001863658 0)
(0.01000169 6.103373e-05 -6.879125e-27)
(0.009943525 7.285394e-05 1.781915e-28)
(0.01061154 0.0006476657 0)
(0.009725578 0.0008835765 -9.653922e-25)
(0.01038374 0.0004917177 -4.167785e-26)
(0.009887285 8.033625e-05 0)
(0.0105444 0.0005228739 1.197822e-25)
(0.01002445 0.00012398 0)
(0.01067247 0.000655821 2.125736e-25)
(0.009896069 0.0001554988 -5.790388e-26)
(0.009823666 0.0001059967 -3.942343e-26)
(0.01004517 0.0001415534 5.707888e-27)
(0.01008685 0.0003663402 0)
(0.009866116 0.0001094976 8.922336e-27)
(0.009813044 0.0003415683 -2.214482e-26)
(0.009954199 4.353834e-05 1.784576e-26)
(0.00990065 0.00010244 1.090973e-26)
(0.0100174 7.267979e-05 0)
(0.009880954 9.076733e-05 0)
(0.009780926 0.000227013 -2.077663e-25)
(0.009800119 0.0001383682 0)
(0.009808849 0.0001789104 7.583948e-26)
(0.01003521 9.989284e-05 4.343554e-26)
(0.009596949 0.0004139351 6.155593e-25)
(0.01003016 0.0001305197 -5.952515e-26)
(0.009704595 0.0005142492 -3.101649e-25)
(0.01002587 8.765122e-05 -5.091025e-27)
(0.01043826 0.0001585507 0)
(0.009887783 0.0006939337 0)
(0.00993005 0.0001191961 0)
(0.00999134 0.0001036589 0)
(0.009996534 0.0007848187 -5.125755e-25)
(0.01046285 0.0009560055 0)
(0.01061524 0.0009513488 7.826576e-25)
(0.0104852 0.0009604944 -6.904643e-25)
(0.01033945 0.0009878327 0)
(0.00997312 0.001089608 -1.541129e-24)
(0.01043885 0.0003039577 -8.032429e-26)
(0.01040091 0.0002777781 3.025241e-25)
(0.00969591 0.0005686743 -2.376139e-25)
(0.01000296 4.66735e-05 -8.342631e-27)
(0.0101652 0.0004628161 1.299411e-25)
(0.01005797 0.0003085237 -1.630387e-26)
(0.009962637 0.0001311259 5.389489e-26)
(0.009991506 0.000455856 1.355238e-25)
(0.0100123 0.0002311831 -1.480476e-26)
(0.01014209 0.0004635654 -2.284566e-26)
(0.009995436 9.003534e-05 0)
(0.01032826 0.00111591 1.320914e-24)
(0.01002596 0.000213093 -2.70678e-27)
(0.01002882 0.000206535 -9.958169e-27)
(0.009997033 0.0001930094 0)
(0.01002307 0.0001875977 0)
(0.009955385 0.0002794377 1.481001e-27)
(0.01040213 0.000415293 -2.761419e-25)
(0.01046794 0.0005023088 0)
(0.01005729 0.0002076045 6.561924e-26)
(0.01011256 0.0006771316 -2.746611e-25)