/*--------------------------------*- C++ -*----------------------------------*\
| =========                 |                                                 |
| \\      /  F ield         | OpenFOAM: The Open Source CFD Toolbox           |
|  \\    /   O peration     | Version:  2406                                  |
|   \\  /    A nd           | Website:  www.openfoam.com                      |
|    \\/     M anipulation  |                                                 |
\*---------------------------------------------------------------------------*/
FoamFile
{
    version     2.0;
    format      ascii;
    arch        "LSB;label=32;scalar=64";
    class       volScalarField;
    location    "2";
    object      p;
}
// * * * * * * * * * * * * * * * * * * * * * * * * * * * * * * * * * * * * * //

dimensions      [0 2 -2 0 0 0 0];

internalField   nonuniform List<scalar> 
15536
(
-26.89687
-21.8112
-16.91736
-13.11375
-11.36345
-11.16583
-12.44396
-15.10608
-18.2262
-19.98828
-19.97944
-18.63504
-16.6917
-14.30001
-12.387
-12.31763
-13.34789
-15.14632
-16.37041
-16.88573
-21.22173
-33.13927
-50.09736
-66.89583
-70.0962
-52.78023
-26.23823
-5.268629
-12.61396
-29.69752
-39.14573
-46.37299
-65.26169
-104.7712
-138.1764
-119.9439
-76.85241
-80.92296
-90.71891
-91.42989
-94.96187
-99.15988
-101.7829
-102.7895
-102.8588
-101.9108
-100.065
-97.26566
-93.98936
-90.37386
-86.09217
-81.24786
-75.80271
-70.00187
-63.79137
-57.24422
-50.68453
-44.03186
-37.05686
-29.93979
-22.95562
-16.11572
-9.32167
-2.631837
3.824858
10.134
16.13681
21.81016
27.05044
31.85728
36.19116
40.05351
43.41204
46.1961
48.36609
50.02448
51.03807
51.4593
51.33109
50.71169
49.34795
47.31968
44.70472
41.5086
37.75312
33.45891
28.69845
23.38265
17.67881
11.63354
5.092608
-1.749467
-8.825184
-16.32229
-23.95457
-31.51424
-39.23197
-47.08559
-54.88219
-62.70429
-70.38105
-77.72684
-84.69787
-91.38317
-97.90284
-103.9387
-109.4662
-114.4343
-118.8594
-122.8053
-125.9807
-128.2994
-129.8017
-130.4834
-130.1443
-128.4028
-124.9429
-119.7534
-114.0715
-114.337
-117.8012
-106.5815
-80.892
-73.99146
-131.5101
-171.5883
-143.5189
-86.36338
-51.03419
-37.30509
-28.42736
-15.3728
-3.83583
-4.95424
-16.88981
-35.85613
-52.54335
-59.57506
-58.91208
-53.31402
-44.98644
-34.71655
-24.43501
-20.49312
-23.66661
-24.37453
-23.61295
-23.13048
-23.91877
-28.53795
-25.62081
-20.12904
-22.86655
-28.04351
-32.15836
-33.19135
-31.16325
-26.71969
-21.69665
-16.86264
-13.0969
-11.36778
-11.17795
-12.45259
-15.09928
-18.19494
-19.9536
-19.96994
-18.64487
-16.69717
-14.29428
-12.37194
-12.29452
-13.32907
-15.1225
-16.3435
-16.87602
-21.25974
-33.16909
-50.08338
-66.80879
-70.03827
-52.78903
-26.25332
-5.156349
-12.69226
-29.77195
-39.1839
-46.35023
-65.23411
-104.8272
-138.2907
-119.8511
-76.80977
-80.83533
-90.61632
-91.20676
-94.40264
-98.29322
-100.6434
-101.498
-101.5066
-100.5328
-98.67803
-95.88137
-92.61642
-89.02982
-84.78121
-79.97774
-74.5768
-68.82791
-62.67582
-56.18896
-49.69042
-43.10366
-36.19962
-29.14984
-22.23349
-15.46211
-8.73387
-2.108482
4.284654
10.53022
16.47157
22.08879
27.27775
32.03662
36.32789
40.15295
43.47913
46.23835
48.38764
50.03157
51.03735
51.45593
51.32901
50.71403
49.36085
47.35164
44.76172
41.59613
37.87691
33.6251
28.91178
23.64879
18.00475
12.01894
5.54295
-1.226523
-8.232846
-15.662
-23.21524
-30.69761
-38.34002
-46.11465
-53.83313
-61.57845
-69.18052
-76.45251
-83.35391
-89.97926
-96.44421
-102.425
-107.9058
-112.8313
-117.2224
-121.1457
-124.3057
-126.6247
-128.143
-128.8627
-128.5913
-126.9917
-123.8122
-118.9852
-113.7469
-114.3285
-117.8608
-106.7418
-81.00528
-73.84521
-131.3939
-171.6468
-143.4247
-86.20385
-50.89541
-37.25493
-28.48125
-15.47917
-3.916474
-4.868801
-16.86923
-35.89658
-52.57719
-59.56448
-58.8983
-53.28852
-44.95283
-34.72223
-24.47509
-20.52933
-23.66471
-24.36477
-23.63125
-23.16785
-24.0023
-28.56743
-25.5724
-20.09569
-22.86207
-27.99556
-32.04369
-32.96702
-30.92931
-26.6315
-21.63452
-16.84245
-13.0988
-11.38848
-11.20815
-12.47949
-15.11252
-18.19329
-19.96039
-20.00691
-18.68959
-16.71725
-14.29072
-12.34513
-12.26805
-13.30256
-15.06292
-16.31412
-16.90254
-21.37905
-33.27608
-50.15914
-66.94156
-70.23141
-53.13228
-26.68525
-5.074748
-12.70295
-29.78085
-39.18226
-46.3839
-65.34158
-105.0859
-138.7249
-120.2341
-77.10348
-80.34466
-89.75619
-90.66567
-93.74897
-97.39554
-99.69931
-100.6254
-100.6781
-99.72849
-97.90949
-95.13095
-91.87813
-88.31884
-84.08276
-79.30512
-73.92909
-68.20961
-62.09438
-55.62336
-49.15283
-42.607
-35.72909
-28.70931
-21.82489
-15.09216
-8.401117
-1.8042
4.549923
10.76727
16.67554
22.26253
27.42266
32.15456
36.4191
40.22014
43.5247
46.26824
48.39964
50.0325
51.03146
51.44711
51.32197
50.71161
49.36614
47.37211
44.79989
41.65495
37.95996
33.73456
29.05152
23.81471
18.2042
12.25358
5.807615
-0.9241999
-7.890717
-15.28619
-22.80136
-30.23919
-37.84688
-45.58753
-53.26105
-60.98314
-68.54989
-75.79266
-82.66606
-89.24584
-95.68021
-101.6275
-107.0863
-111.9884
-116.3566
-120.2635
-123.4007
-125.6902
-127.1746
-127.8668
-127.5542
-125.86
-122.6933
-118.1136
-113.305
-113.7657
-116.7813
-106.1252
-80.62256
-73.64781
-132.0568
-172.5997
-143.8848
-86.314
-50.82717
-37.22464
-28.55283
-15.6315
-4.019279
-4.800315
-17.09688
-36.24273
-52.76221
-59.67728
-58.99183
-53.31867
-44.94744
-34.74039
-24.56516
-20.63182
-23.75818
-24.48827
-23.69229
-23.16785
-24.15516
-28.73979
-25.54753
-20.0824
-22.91971
-28.13123
-32.03939
-32.91818
-30.84467
-26.52277
-21.57363
-16.84447
-13.12552
-11.43425
-11.26592
-12.53522
-15.15373
-18.21422
-19.95939
-20.07554
-18.77995
-16.75356
-14.29047
-12.30817
-12.23755
-13.28146
-15.00642
-16.30952
-16.98356
-21.6007
-33.47366
-50.35571
-67.30702
-70.69484
-53.7569
-27.65425
-5.145906
-12.50747
-29.54009
-39.0499
-46.46486
-65.52293
-105.4574
-139.3217
-120.7978
-78.45978
-80.10571
-88.53917
-89.80822
-92.80568
-96.11937
-98.21922
-98.91971
-98.8949
-97.91962
-96.13161
-93.38048
-90.15095
-86.64434
-82.48022
-77.77796
-72.47419
-66.82986
-60.79795
-54.4107
-48.01765
-41.55964
-34.78008
-27.83714
-21.0307
-14.38231
-7.774319
-1.249639
5.02484
11.17457
17.01548
22.54549
27.6488
32.32837
36.54736
40.30993
43.58081
46.30142
48.40737
50.02655
51.01758
51.43003
51.30756
50.70211
49.36403
47.39152
44.84457
41.73012
38.07314
33.8928
29.26382
24.07716
18.5348
12.65146
6.270617
-0.3746851
-7.261164
-14.58648
-22.00104
-29.3447
-36.8686
-44.50918
-52.085
-59.71331
-67.18442
-74.32261
-81.09279
-87.59647
-93.95296
-99.80752
-105.1901
-110.0103
-114.3229
-118.191
-121.2805
-123.5339
-125.0152
-125.736
-125.5074
-124.0193
-121.0916
-116.8772
-112.5667
-112.4804
-114.2831
-104.4142
-80.34718
-74.45832
-133.3245
-173.8334
-144.5752
-86.54008
-50.85231
-37.17173
-28.53526
-15.66562
-3.912013
-4.53584
-17.62266
-36.9319
-53.11452
-59.93194
-59.1704
-53.40733
-44.96526
-34.78801
-24.74969
-20.83704
-23.93265
-24.71109
-23.70558
-22.88182
-24.28724
-29.09091
-25.61608
-20.16315
-23.18698
-28.3938
-32.02455
-32.69572
-30.68691
-26.43709
-21.53138
-16.88506
-13.19099
-11.51767
-11.36651
-12.63843
-15.24249
-18.27977
-19.99848
-20.18359
-18.92173
-16.83099
-14.30165
-12.28236
-12.21807
-13.28409
-14.95589
-16.32058
-17.12903
-21.93649
-33.78219
-50.72898
-68.01257
-71.5769
-54.67257
-29.1129
-5.580519
-12.0894
-28.94816
-38.76326
-46.63112
-65.63461
-105.1975
-138.7564
-120.7159
-80.88264
-80.74589
-87.43866
-88.86397
-91.78412
-94.87356
-96.89976
-97.60596
-97.65658
-96.66964
-94.90653
-92.15077
-88.88193
-85.42792
-81.25538
-76.58797
-71.29552
-65.69634
-59.72689
-53.363
-47.01844
-40.64208
-33.92462
-27.02819
-20.28349
-13.71511
-7.177331
-0.7049904
5.491476
11.58636
17.36387
22.83646
27.87855
32.50943
36.68184
40.40329
43.6325
46.32708
48.40451
50.00751
50.99046
51.39975
51.28095
50.67872
49.34509
47.40284
44.88933
41.8094
38.19294
34.05753
29.48443
24.34524
18.87704
13.05539
6.723405
0.1702689
-6.637466
-13.9235
-21.25088
-28.503
-35.96832
-43.54105
-51.02507
-58.60518
-66.01691
-73.09304
-79.80851
-86.25259
-92.58045
-98.37996
-103.7456
-108.5371
-112.8287
-116.7262
-119.7718
-122.0338
-123.5146
-124.2537
-123.9696
-122.4084
-119.557
-115.5897
-111.6466
-110.9432
-111.5424
-102.7847
-81.33543
-77.31943
-134.8465
-174.7675
-145.263
-86.94963
-51.05544
-37.1372
-28.33121
-15.39932
-3.37514
-4.031381
-18.34688
-37.89816
-53.72763
-60.39903
-59.42688
-53.45564
-45.01033
-34.91799
-25.07949
-21.18599
-24.22049
-25.00441
-23.58147
-22.16677
-24.3536
-29.67647
-25.90716
-20.53372
-23.7669
-28.77271
-32.08563
-32.62003
-30.57733
-26.37811
-21.51695
-16.98743
-13.29627
-11.65701
-11.53345
-12.81576
-15.40625
-18.418
-20.08874
-20.34551
-19.12641
-16.98304
-14.37268
-12.29208
-12.23177
-13.32222
-14.89049
-16.28977
-17.29777
-22.37852
-34.21323
-51.36898
-69.20833
-73.07368
-55.99623
-31.16452
-6.651931
-11.73314
-28.24707
-38.44738
-46.84869
-65.34658
-102.682
-133.3334
-117.7051
-83.14233
-81.67441
-86.26502
-87.70036
-90.38202
-93.13392
-94.95637
-95.3782
-95.30872
-94.29853
-92.65196
-89.95006
-86.71732
-83.40453
-79.31451
-74.76608
-69.55854
-64.04438
-58.17836
-51.89118
-45.65463
-39.40319
-32.77542
-25.96206
-19.3267
-12.85967
-6.419012
-0.02095035
6.064566
12.08951
17.77799
23.16282
28.13753
32.71988
36.83403
40.5033
43.67535
46.34703
48.38802
49.96669
50.94291
51.34835
51.23352
50.63344
49.30605
47.39765
44.92993
41.8952
38.32818
34.24795
29.7364
24.64604
19.286
13.55157
7.259825
0.8180341
-5.847846
-13.07479
-20.29815
-27.40893
-34.76704
-42.24658
-49.60637
-57.07868
-64.37873
-71.34037
-77.9246
-84.26193
-90.51529
-96.179
-101.4589
-106.1309
-110.3275
-114.1348
-117.101
-119.2577
-120.642
-121.4298
-121.3418
-119.9678
-117.3952
-113.7959
-110.3077
-109.2193
-108.902
-101.4224
-83.78159
-81.87648
-135.9051
-174.0344
-144.9894
-87.13081
-51.57829
-37.21193
-27.84217
-14.70892
-2.384864
-3.384736
-19.2465
-39.12562
-54.73157
-61.18915
-59.78639
-53.43606
-45.10605
-35.19755
-25.53055
-21.69882
-24.64085
-25.34924
-23.33588
-21.13087
-24.34714
-30.51188
-26.57056
-21.41833
-24.65478
-29.25508
-32.19199
-32.54615
-30.50561
-26.41
-21.61815
-17.23922
-13.46329
-11.88655
-11.79508
-13.08553
-15.66618
-18.63929
-20.25633
-20.58731
-19.40656
-17.23823
-14.55838
-12.38255
-12.30211
-13.38317
-14.7484
-16.12719
-17.35582
-22.83788
-34.69906
-52.39589
-71.13136
-75.50855
-57.91051
-34.07504
-8.764543
-12.00565
-27.70083
-38.05175
-47.09308
-64.6828
-97.51316
-122.2649
-110.7899
-84.04619
-82.16507
-84.97971
-86.47296
-88.9118
-91.38332
-93.145
-93.43748
-93.60058
-92.4014
-90.73789
-88.00263
-84.6888
-81.47924
-77.37127
-72.93494
-67.74818
-62.25363
-56.51823
-50.35211
-44.18137
-37.99226
-31.50321
-24.82221
-18.26859
-11.84864
-5.583507
0.7446686
6.695071
12.65139
18.21627
23.51318
28.48054
32.95789
36.98271
40.57981
43.69638
46.39166
48.35394
49.90288
50.86999
51.2666
51.15627
50.57596
49.26773
47.35035
44.91735
41.94296
38.44324
34.4579
30.0288
24.96299
19.71953
14.12714
7.921866
1.525867
-5.027824
-12.08346
-19.21689
-26.22735
-33.45317
-40.75075
-48.0685
-55.45868
-62.58141
-69.47321
-75.91147
-82.1535
-88.37887
-93.91403
-99.17526
-103.7457
-107.938
-111.8202
-114.7232
-116.9456
-118.5254
-119.2951
-119.0619
-117.6902
-115.2766
-111.9383
-108.8258
-107.3949
-106.301
-99.92293
-86.46322
-86.46177
-134.2442
-168.208
-140.6792
-85.90853
-52.41618
-37.57672
-27.31734
-13.72792
-1.26793
-3.009393
-20.46038
-40.71843
-56.35178
-62.47642
-60.37653
-53.45072
-45.32245
-35.5977
-26.04976
-22.42002
-25.23966
-25.76397
-23.06397
-19.85681
-24.24085
-31.26179
-27.54453
-22.90286
-25.83233
-29.88811
-32.44487
-32.5431
-30.50785
-26.66132
-21.9672
-17.70803
-13.89436
-12.27699
-12.18289
-13.4599
-16.03582
-18.94621
-20.50589
-21.01625
-19.79579
-17.6043
-14.89323
-12.617
-12.43822
-13.42153
-14.48214
-15.7018
-17.12734
-22.98001
-34.96326
-53.81556
-74.08434
-79.27071
-60.80037
-38.16476
-12.12781
-13.28718
-27.47739
-38.01971
-48.2728
-63.84203
-90.97101
-110.8084
-102.9967
-83.74424
-81.88224
-83.38725
-84.84434
-86.91572
-88.97248
-90.74257
-90.48618
-90.42646
-89.45154
-87.92053
-85.42986
-81.88498
-78.87679
-74.90575
-70.65236
-65.43266
-60.02049
-54.64944
-48.649
-42.23719
-36.22697
-30.13541
-23.61957
-16.89459
-10.60066
-4.735757
1.621167
7.355922
13.28716
18.61429
23.99481
28.96419
33.1874
37.09651
40.59537
43.69353
46.42979
48.25685
49.82358
50.76563
51.14899
51.05322
50.51631
49.19346
47.26269
44.81924
41.91853
38.49844
34.63133
30.4021
25.32142
20.16234
14.74062
8.867433
2.531739
-4.282628
-11.02255
-17.77687
-24.93483
-32.0821
-38.90496
-46.05962
-53.75901
-60.39439
-67.29357
-73.54336
-79.59437
-85.81517
-91.07805
-96.38023
-100.673
-104.7227
-108.6451
-111.3691
-113.4512
-114.6587
-115.6606
-115.693
-114.4709
-112.351
-109.3254
-106.7315
-105.1629
-103.5491
-98.09896
-88.34076
-89.72447
-127.8721
-154.048
-129.7324
-81.9835
-53.12356
-38.13015
-26.92343
-13.0639
-0.8834215
-3.577329
-22.17343
-42.76792
-58.90239
-64.54838
-61.46418
-53.74917
-45.65948
-35.85239
-26.95135
-23.42363
-25.93221
-26.00591
-22.74359
-18.71312
-23.90192
-31.24504
-28.52193
-24.87934
-27.28474
-30.69396
-32.88954
-32.64621
-30.70145
1.116877
0.556992
-34.33729
-25.37281
10.967
-21.33287
1.571109
0.6218421
10.05919
-2.431657
-2.141645
0.7053148
-1.213774
0.4931994
0.5413327
2.37618
-8.850511
-3.888765
0.5011536
0.2780383
-88.18779
-24.49911
1.689695
-2.578346
1.336741
1.620571
0.270717
-1.82987
-8.40349
0.9585974
1.375381
-20.52307
-28.37468
2.426347
-0.2118431
-5.705464
-0.5771066
0.1882516
0.8141609
-6.816937
-22.62598
1.621151
0.398607
2.769566
33.10378
1.283353
0.7632556
1.649091
0.6912939
-1.989144
-5.567252
-1.088394
-37.43495
0.2281514
0.1330112
22.22527
-6.180632
-13.29468
-14.28716
-22.9958
-1.746925
0.02708341
-5.58816
1.129725
-7.432652
-0.4535418
-30.3438
-0.4843263
1.360487
-2.639469
-0.6748697
0.9426035
-1.297473
-53.01801
21.61474
0.4087641
3.590632
-3.288889
-2.296938
0.2870106
-23.63015
0.1196559
2.73516
0.3452355
-11.88242
1.308726
-31.79515
0.1611043
-40.04017
-0.8644792
-18.45172
21.86277
-0.353075
0.478468
1.46036
0.974911
-4.016525
5.29374
-40.10411
1.658952
1.019028
0.2190543
-0.5265084
-87.83747
-0.2167731
-17.57602
0.2130542
1.096783
-4.48731
1.357517
0.3260839
0.3265114
0.8538814
6.872427
-21.07719
0.02416326
0.2123913
0.9871055
19.93925
0.8651616
3.169107
0.1945045
-0.7492454
-7.458877
-6.512823
-6.434508
-0.3806825
-34.43274
2.233174
3.55963
0.1692191
-1.198958
-0.1137783
0.357347
1.805423
-22.33802
0.07039213
6.075003
1.089734
0.2410687
-34.49642
0.1058876
-65.62658
0.6656933
-0.250152
0.8435105
-0.07595523
-45.51908
0.2075767
-0.5470531
-21.39703
-18.88452
-39.28236
-0.8796692
-17.0536
-36.89838
0.9889411
0.2859366
0.135317
-30.96103
-0.9392139
-24.38213
-11.1962
-0.7185316
-2.141859
7.902234
-23.28086
1.42288
-31.12542
-1.667769
1.513378
-0.8242362
0.8265939
-37.06132
-8.671882
-5.230072
1.868316
1.373718
-39.6201
0.2398628
15.25615
0.5813912
1.619283
0.8681525
3.084809
-47.37679
1.700121
0.4464491
-17.03907
1.00955
0.02718084
0.7950559
-10.18142
-3.43214
0.1947975
1.007665
-2.90503
-0.0820623
-5.722152
-34.55797
0.04351129
1.268348
0.8763985
-44.72718
1.815146
-5.664964
-8.357497
0.9449049
-10.28082
-0.06640565
1.47791
-3.584033
1.985961
-17.47105
-0.1945708
-6.594133
-13.2386
0.3387611
3.570489
0.474056
1.227405
0.572328
2.437343
-2.300534
-4.521945
-1.876742
1.504351
7.40877
-1.243441
18.34036
-5.249549
-28.07025
2.755803
-0.719008
-82.89642
0.6377493
26.18666
2.109808
1.911103
-0.2633585
0.2337642
1.020181
-0.9763618
-11.5855
0.7242798
10.71123
1.394305
-42.31501
0.3167346
0.06206456
-33.6053
0.6060587
-0.02040371
0.358164
2.511419
-28.15824
0.7431689
0.2444687
-2.786111
-6.862958
-4.273146
0.1041914
1.286613
-1.989736
-0.4336307
1.842631
0.9877054
0.07422091
-3.174025
-27.29624
0.2424955
0.04275785
12.1127
-1.47911
-6.377446
2.826495
1.215176
-26.34095
-40.14973
0.4746832
1.469532
0.5412939
0.7911378
1.471859
0.4764967
1.066035
35.25851
-0.1317581
1.504532
-15.59357
0.9077638
-0.7581848
1.245667
1.452318
-37.15054
0.3236633
-20.99118
-0.1960579
2.510442
-0.37725
-43.49025
1.081308
0.8820787
-37.20164
-0.6539222
-0.3500602
-14.78131
1.318984
-18.97869
-19.21049
-0.6778423
-0.1850154
1.688998
1.555127
-0.5199484
-13.57619
34.11978
-50.09396
-30.9075
-66.45203
-1.036872
-0.2336742
-0.2474811
-0.8211685
0.03450245
1.69555
1.047084
-0.2403006
1.207748
1.259819
17.75922
0.5868807
-8.86064
-52.49338
1.444999
1.433707
1.400642
-0.5061558
-4.685113
-2.283764
-45.33095
-0.812454
0.4015437
0.02888204
-14.64556
3.851393
2.333213
-0.1736848
-12.3074
0.1664265
-0.252769
1.596939
12.8377
0.1183502
-0.9511202
-33.30836
-54.25843
-1.678749
1.100483
-5.081048
1.628733
2.214754
-0.9231656
1.755476
0.4200862
1.57716
1.219781
3.320168
1.06966
0.993051
-3.818884
12.10449
-39.03422
1.197945
1.572023
0.7483353
-4.190806
2.231944
2.050901
0.6540856
0.8423603
1.197581
-0.3267378
-12.11247
-0.1305073
1.436648
1.586396
37.19343
1.655157
-14.61828
-3.166816
0.6785053
1.865758
-35.39903
-0.3700563
-1.320817
0.5444305
-34.88822
0.9644591
1.105391
1.573782
0.1988161
-30.24482
-4.183149
-10.81934
-23.45434
-36.23084
-52.88993
1.448604
2.851848
0.07739886
0.2608464
-4.388101
0.575931
1.493864
-0.9830793
1.606043
-19.46383
0.2171448
4.095832
0.2875088
0.33689
3.562872
1.50736
-0.2251598
-27.77231
0.1941218
0.7052037
-22.59341
2.240849
1.656678
-8.212176
-3.158203
0.420077
2.193426
-4.773384
-1.245619
-6.905452
0.4249393
0.2781215
-14.80847
-3.684182
0.2272584
0.9339356
-5.373235
1.542914
0.6454965
1.242197
-3.420023
-0.3801665
0.6676992
-35.8579
2.458309
-8.71914
1.487385
-4.855153
0.7752348
4.221302
1.817173
-21.47038
0.9091588
-36.63465
-0.3138229
1.67464
-9.604436
0.02890785
25.84127
0.8422605
3.115489
-2.226443
-12.19867
-2.469686
1.138296
7.238933
-3.253083
-7.042601
1.517455
-34.68028
-1.529051
0.6687654
-31.93179
1.593819
1.013881
0.9669601
1.610892
1.501473
1.368906
16.0071
0.3217981
1.169697
-0.3410072
-25.4803
-1.686221
0.258854
-21.08462
0.9861575
0.278174
3.424678
1.458486
3.220779
1.644385
1.047077
0.6220748
-5.920699
1.785405
1.658792
0.5195428
1.745255
2.409543
0.5422026
-26.0113
3.004563
14.93
-2.597055
-1.449077
1.272032
-9.596554
0.6129136
-1.123377
0.5994461
1.07566
0.7662125
-10.39432
-6.524279
1.439462
-1.837796
0.408991
1.176055
0.286297
0.36041
-27.72385
-1.95689
-26.39131
0.1715113
3.621823
3.95641
2.904065
0.3772191
1.606333
0.2904713
4.027031
1.43121
0.01499886
1.955593
-46.9922
2.134258
3.312794
-10.4167
0.5281249
7.438288
1.059421
5.581368
-9.651141
-4.83019
-2.471798
-3.986405
0.2800773
-2.341013
15.45308
-4.545825
0.4991807
-20.1756
-6.247772
-5.972795
0.2133272
1.366825
0.7607229
7.431258
31.13246
-1.611682
1.294833
4.410246
2.723443
-63.51539
-0.2304881
2.34213
1.44223
2.284021
1.535862
-2.080998
-11.92107
-0.8385897
5.355931
-0.1178817
-2.386853
-23.78346
2.860237
-0.5192446
-80.26613
-4.801266
-2.084778
-19.57087
-11.17978
-0.087694
1.805643
0.3406393
1.043428
-53.26657
-9.488937
1.909284
1.510674
0.1671982
0.8592457
0.04891976
1.641237
-17.85658
-8.778849
1.044031
-20.40346
1.593152
4.243166
0.3306249
-28.24037
-1.648808
8.246728
-16.07974
-0.5851557
-0.5379897
-0.7339544
3.465698
1.536064
-0.1812204
0.7803384
0.3308017
1.464488
17.48738
2.117396
0.3578617
1.955727
-3.388679
1.725975
-1.769834
-15.60305
-3.344229
-39.12111
-9.318326
-16.65418
0.5523805
-1.001263
2.858524
1.46347
2.2073
-2.39867
3.420805
1.392725
0.3988678
1.419552
-62.14394
1.650352
25.18824
3.689458
-29.14779
-2.523805
-1.448699
6.555629
-3.640773
-20.64237
-0.7785869
0.8921848
-19.37216
-0.1648215
0.1593708
0.09809448
2.172424
-6.468049
0.05148437
-0.1381921
1.707477
0.6662129
-3.446741
0.86696
-1.334247
-83.05062
1.904181
0.3193845
3.966207
-43.11675
2.095459
-0.272779
5.676414
13.60059
9.282015
1.633164
1.113821
2.588642
1.928244
1.417945
-3.43059
2.296387
0.9228101
-20.09054
1.268794
-44.1884
-9.996364
1.379026
1.534783
-38.95336
1.410935
0.5073362
-0.2626514
1.807514
-11.6994
0.3656024
-4.267924
3.601402
1.259414
1.387389
1.167973
-20.56961
0.9141081
0.5907895
0.1892577
2.372491
0.2025555
-3.233184
0.02905974
0.9141713
-40.52055
2.044425
-4.119382
2.222823
0.2780855
0.09038347
1.3103
2.44828
0.5311969
1.031675
-27.77292
2.155308
1.326836
0.465796
0.558485
1.075197
1.106863
2.294547
0.9235172
1.783246
3.431281
-22.84985
0.3712053
-0.3076906
-1.669233
-2.066632
0.6327653
2.346246
0.3056992
-53.49127
2.135294
-1.861067
8.176124
1.846239
-14.44835
-11.73829
0.6515805
0.408879
-6.553774
3.052658
-9.621393
-15.99365
-6.464853
-5.238233
-0.8795495
1.574377
12.50973
1.069979
2.097023
-59.56441
1.614761
0.9472757
1.070963
-10.98479
22.61528
-6.25469
-20.60933
1.854714
0.4097503
1.193044
0.4554408
-4.378963
2.096949
-6.312714
-1.828682
-0.7515747
-0.6082958
4.254995
0.79047
-9.277573
-0.8997
0.009088531
0.07265804
-1.142805
2.333001
30.57736
0.09272289
0.2725199
0.7119572
1.171952
0.62026
0.6654271
-55.45222
0.6090933
-69.00597
-7.836835
-0.89976
-0.4327425
0.07338671
-4.27112
0.2709421
-9.059036
-1.093587
0.2901375
-5.5766
-49.48325
1.746157
-1.616332
-0.4964103
0.8075661
-1.370854
1.805979
-21.30223
-4.651284
15.18948
1.421498
0.9471634
-0.3249794
-0.3637812
1.537811
-0.3876156
-1.833285
0.1123487
-4.78175
1.21283
7.98651
-30.97041
1.41198
0.9149383
-11.61608
-1.686732
0.9220134
1.003441
-1.465473
-0.4252995
1.301999
2.603061
1.398061
1.945052
3.188654
-1.058952
-3.884839
29.82682
0.916375
-3.642642
2.034118
-61.72023
0.9593634
1.574887
0.5880411
0.9253736
32.12091
-0.6761272
1.372628
2.666415
1.113414
-5.327896
1.282883
0.7382381
0.9207345
-19.80695
-16.79837
0.2316459
-1.800998
-8.261575
0.4565693
0.8469726
-1.969202
-14.47435
4.690871
28.90195
1.610459
0.8388853
-0.9970319
-0.184305
0.3999063
10.3771
-2.189751
1.145614
0.7180643
-0.7679834
0.6264394
-0.09968767
-5.468236
-6.516846
0.272469
-24.87525
2.632744
3.362398
0.1422829
-7.971301
-12.95926
4.884719
-7.031745
-1.221941
1.240433
8.632573
-24.8448
5.354702
1.528027
0.9940048
-10.64843
28.11015
1.415946
-0.4988258
-3.562525
-44.79872
-0.8706116
0.3683052
2.97468
0.3426231
-0.1578477
-24.39916
-3.193902
1.538285
2.703946
1.177039
0.1282189
-29.05434
-18.78998
-44.56982
2.491106
-44.65112
0.9828895
-1.162542
-16.28695
0.9978574
-1.991904
-32.84472
-0.04050342
-0.02237444
-19.56877
2.117936
0.7040638
-41.06738
-39.24972
2.502955
16.76731
0.1971671
0.00122524
-20.82942
15.64083
-19.14329
0.08079501
0.3931693
3.023091
-0.876665
-0.2007326
1.066412
1.532903
1.16486
-0.2122019
-61.97511
-77.52318
1.502155
-17.02367
2.252813
0.5218347
0.664114
2.410594
0.6154456
0.2225083
1.102555
0.9514069
0.2314375
4.813589
1.101542
-20.29559
0.3414242
0.6575696
-27.87078
1.001392
0.8596695
-1.565264
-30.91452
0.391715
-3.671147
3.27411
-10.56622
-33.36921
34.86869
47.76489
1.234498
0.3140562
-11.39197
5.713075
0.9905544
0.2896802
10.42464
-35.48876
1.136071
1.301544
-1.241758
1.85414
1.117958
-0.3677141
-2.261979
-20.32912
-61.57009
-9.682328
1.419693
1.416139
1.548839
1.626265
-8.691845
-1.288525
1.361688
0.891779
-0.08232669
1.278454
1.553768
-32.00395
-20.18261
1.033556
0.3394938
-10.40626
1.215283
-4.134049
1.168375
0.2320501
-31.40377
0.08584768
-41.20281
-42.77008
-0.6182333
-1.108324
-67.06591
-95.94982
0.3787507
-5.032787
-0.7266354
0.6452466
-0.1769037
-6.71311
0.221137
1.156219
1.292929
-18.00795
-0.7808323
-2.356396
-0.1626006
2.404335
0.4212937
0.2020496
0.1976545
0.04908473
-0.4262661
0.2156793
0.8330924
-15.25742
0.419363
-0.4280115
3.362924
0.02184434
1.228424
1.769735
0.09214498
-1.676593
-21.17153
-18.87148
-2.985768
1.158174
0.248395
0.6911846
-31.39259
-13.24086
-10.21832
-34.17554
23.00153
1.252052
2.501468
3.536888
-24.01992
0.1367502
3.041403
-75.23674
-9.193031
0.1268727
-1.508563
1.917623
5.720241
0.314279
1.568611
4.880473
-3.399065
-26.82044
1.248315
-5.157749
34.39278
-14.20929
-8.398959
1.405824
1.777731
-3.549071
7.664946
0.1114724
7.025049
-0.4624916
1.698068
-6.582282
1.279542
-3.532
1.056446
-16.56265
1.137238
-95.36619
7.843107
2.855534
17.58723
1.42352
28.81984
-3.495652
-7.137025
-2.670774
-0.4733601
13.95216
-0.7691941
-27.3858
1.719547
-0.4551869
0.6508643
0.8114834
1.886565
-8.644441
-7.484914
0.3541639
-28.59208
-22.68408
15.81272
-39.08221
1.513272
-47.47996
-13.94461
-2.89724
-19.32824
37.37015
-0.6365768
1.382697
-41.13716
1.601182
0.5556126
-1.017771
-1.125077
-16.28728
-79.91195
2.51513
0.255104
-0.4116881
1.800296
0.5418364
-0.02181244
1.324629
8.079166
3.038976
0.1784772
-1.303361
-0.1032105
-0.4701584
-1.155991
-8.48431
1.117842
0.9567083
-40.09508
0.05284408
-1.118824
0.1173623
-1.72463
-27.91873
1.322073
0.7263205
1.367421
-1.032428
-6.837506
3.092317
0.6356099
0.8352328
-43.42557
22.93532
-3.15483
-3.468184
3.041431
-2.303374
0.7900963
0.3153699
0.5252264
-0.3299187
-12.60946
-11.09901
0.7166683
-18.54148
2.577771
0.3732057
0.1153412
1.413825
-1.687438
-0.2763995
0.5963403
-23.49814
-43.09615
-25.22595
0.2811948
-0.1903804
-1.859398
0.8851261
0.1992811
-38.66113
1.135776
0.7669207
0.002041598
-6.681663
0.1165498
-0.68376
2.145411
-49.73727
-0.6462297
0.9008206
1.673506
-60.42322
1.474966
-36.92973
1.410843
1.917387
-0.07668916
-0.184364
2.382799
-35.66784
-29.56759
0.2286435
0.136219
-7.587339
-9.137603
2.560681
2.107908
1.40151
-0.08449333
0.04165719
0.9534471
-39.05712
-8.386006
-0.6789574
0.03888449
1.218372
-1.950885
0.01670447
1.495743
0.7959775
-9.345343
-0.6762003
-1.533145
7.825744
1.690962
-14.63933
1.001584
0.2137127
-2.297251
-21.60703
0.5188802
-0.2948849
0.03053691
-21.09656
-0.5549697
-31.50106
1.581762
4.439745
1.074665
-12.85334
-4.272461
0.3782674
16.06404
2.160784
-7.81116
-78.46192
-1.92203
-3.636629
-2.665059
-3.301648
-3.356602
-2.440138
1.685915
0.3323422
-1.304707
-19.16966
-1.673674
1.454445
1.636566
2.770301
-1.761976
0.6845475
-4.88349
1.40561
-0.02044337
-25.49653
0.08041841
2.11396
0.4492809
-5.703949
-19.05785
-1.795442
-2.882116
0.702111
1.04604
2.913472
-30.07487
-3.186159
1.446837
-0.1170765
-0.5515731
11.72312
-58.42686
-15.05016
-1.291402
-0.800638
19.72752
-3.402637
0.9911878
1.193762
-1.276753
-9.697358
-40.16494
-32.95244
-21.41775
9.87145
7.319682
-3.738196
-48.64897
-49.30251
-73.47057
1.932665
-4.263323
-0.3861911
0.5584679
0.2822314
-1.267014
-0.1029645
-6.310965
1.173586
0.4527029
1.284496
0.1276269
-29.41628
-0.2168009
0.7709448
-0.9316137
6.20166
19.4836
0.2259664
-3.329109
-38.55695
-10.49779
4.992163
-6.925588
-5.967665
-14.97637
-66.13497
0.3881603
-31.20472
0.6430075
-44.83144
-17.32989
-0.3176358
1.517164
-23.86467
1.941962
14.02967
0.4376358
0.5201652
2.166046
0.2478927
-17.19857
-0.2939412
0.3399293
0.6673736
1.799355
-39.98173
0.6196592
0.7983704
2.375479
2.454932
1.747219
-25.05546
0.2393546
-36.81315
0.00916516
1.442486
20.27916
-1.986799
0.5226558
-34.8788
-0.6042308
-70.06852
1.782533
0.5132976
1.237576
1.12492
-5.55611
0.6756207
1.843012
-3.166761
0.257153
1.557152
-1.435654
23.43747
1.570624
-13.01425
2.065945
-2.112062
1.337775
-83.17179
1.414237
1.111418
2.88007
1.763668
-11.38987
-57.76817
-40.67926
-59.74833
-0.04568982
-1.193762
-33.19389
1.261402
-15.67477
-0.1955808
0.4694557
-7.434963
-38.52444
-18.07873
-58.61639
-0.2464897
-0.4320448
0.2150778
-3.072484
9.106718
0.2364014
0.1726562
1.646496
-26.81014
-1.40309
14.53089
0.0286521
2.920021
0.7156288
1.778612
0.3631157
2.777173
2.651066
-1.372023
-0.09180084
-11.49959
1.180165
-0.403423
2.80311
1.474885
1.155721
-8.523517
-5.77732
1.104553
1.051369
-17.12324
0.07044292
2.133368
-74.95944
26.26273
-5.416071
-1.028996
-2.378135
-33.33889
0.1612666
1.180316
1.952714
-5.433835
-0.9132631
0.1416996
1.012618
-5.144022
-1.369943
20.86917
36.0069
0.9397812
-33.20273
-11.88209
1.658312
0.458196
-1.609706
33.41062
-45.46096
-10.82791
3.541318
2.150732
-0.1441119
1.299844
-4.993995
2.371389
-0.1391873
-0.4524085
8.518469
0.9043365
1.407952
1.892387
-16.78242
-14.77506
-3.848574
0.1522965
-80.87362
25.92753
-2.445886
-0.3420542
-7.544621
-3.011134
0.09814092
1.91531
31.89887
-22.43991
2.510503
-1.121525
0.3004312
0.3130148
-37.63637
1.512876
-0.6972254
0.2471238
1.32836
19.19916
-2.942509
-11.16994
2.098751
0.637532
0.09911185
18.96691
2.554897
5.439808
-42.41814
-16.94668
-0.3203756
0.224012
-45.41753
1.011037
-39.82611
1.831658
-2.624357
-0.2851792
0.4989335
-0.8270178
-17.21546
-0.7115494
1.255157
-2.776287
0.4835053
1.013627
-1.0067
-59.94454
-20.31859
-1.331884
3.059878
0.07498222
-0.4867716
-0.7165968
-18.36722
0.5960605
-1.038762
-67.11386
1.017311
-3.288873
-2.793993
-90.15951
1.5466
1.666762
-11.96479
3.053896
3.194416
1.81866
35.28547
-9.03069
1.029146
0.9747075
1.119376
-6.050297
-21.01258
-33.22025
14.09322
0.5853229
1.663384
0.824975
0.9923998
0.2520285
0.08772172
-0.2471322
1.606943
-0.3698988
-0.3476013
0.713584
0.6975841
11.75751
7.560917
-3.069316
1.314152
-2.55461
-2.128901
2.711381
-18.19605
11.24372
-50.35516
-45.62451
1.122991
1.545418
-77.53181
42.79331
-92.24579
1.537914
0.7243549
4.119937
2.092453
9.057435
-25.48756
0.5979351
3.592422
-0.450747
2.119867
1.047282
0.527978
-1.149929
-56.22898
1.828003
-26.43936
-1.859531
1.329376
-35.87172
-39.67874
-19.53434
1.660062
15.14854
1.761413
1.16291
1.930673
-0.3416594
-62.30825
0.5854169
2.876936
32.51312
1.496184
1.271018
1.382944
27.36686
6.128626
-4.001918
2.486682
-0.3159214
1.137859
0.5542312
-66.97876
0.0515469
-84.29912
0.718001
-0.2386521
44.96811
0.02054163
0.5594676
1.450895
2.441323
-6.273821
1.326715
-15.27639
41.29348
1.696246
-3.310148
45.61893
-22.60569
-4.597489
-1.235068
-24.35859
1.152651
1.546162
-5.190495
-0.025329
-10.38259
-49.12499
1.285814
1.278126
0.4054968
1.319862
18.45818
0.9655822
0.68585
1.273281
0.4592253
-0.4964418
-0.4890167
-0.3392321
-0.3596861
-1.095918
-4.749765
-21.50794
-79.58565
-31.53606
-24.51501
-9.557618
-1.770712
3.169047
-0.2572086
0.6608718
3.42651
-28.34812
-22.7757
26.98032
-22.14493
0.5293436
-7.092904
-7.373791
-17.71058
-11.59808
-15.36469
1.573189
-68.48342
3.203539
-1.042545
-0.1269376
0.5084213
1.129064
-0.02939357
0.4780293
0.6709048
-0.01560427
1.321943
2.386934
-7.778743
-0.2763161
-0.2858779
0.6281082
-30.4967
-13.93708
0.9016822
-0.9176839
-0.1209684
-14.09322
-22.09375
1.786961
2.082849