/*--------------------------------*- C++ -*----------------------------------*\
| =========                 |                                                 |
| \\      /  F ield         | OpenFOAM: The Open Source CFD Toolbox           |
|  \\    /   O peration     | Version:  2406                                  |
|   \\  /    A nd           | Website:  www.openfoam.com                      |
|    \\/     M anipulation  |                                                 |
\*---------------------------------------------------------------------------*/
FoamFile
{
    version     2.0;
    format      ascii;
    arch        "LSB;label=32;scalar=64";
    class       surfaceScalarField;
    location    "2";
    object      phi;
}
// * * * * * * * * * * * * * * * * * * * * * * * * * * * * * * * * * * * * * //

dimensions      [0 3 -1 0 0 0 0];

oriented        oriented;

internalField   nonuniform List<scalar> 
23794
(
-0.005337587
0.006107233
-0.0007696459
-0.004336988
-0.0010006
-0.003180231
-0.001156757
-0.001867376
-0.001312855
-0.000693084
-0.001174292
0.000489618
-0.001182702
0.001672022
-0.001182404
0.002636754
-0.0009647327
0.003106357
-0.0004696029
0.002728313
0.0003780439
0.001192214
0.001536099
-0.0003823764
0.00157459
-0.001114955
0.0007325789
-0.001251295
0.0001363396
-0.001151668
-9.962707e-05
-0.001341781
0.0001901132
-0.00149574
0.0001539593
-0.001609891
0.0001141506
-0.001963777
0.0003538856
-0.001046561
-0.0009172154
0.001388477
-0.002435038
0.003823302
-0.002434824
0.005851937
-0.002028635
0.006442692
-0.0005907556
0.005024137
0.001418555
0.002015308
0.003008829
-0.002573127
0.004588435
-0.003766944
0.001193817
-0.001173389
-0.002593555
0.00107744
-0.002250829
0.002269863
-0.001192423
0.003963061
-0.001693199
0.007036546
-0.003073484
0.009618492
-0.002581947
0.006973204
0.002645288
0.0007905113
0.006182692
-0.001271018
0.002061529
-0.0001556011
-0.001115417
-0.002288005
0.002132404
-0.006947662
0.004659657
-0.01027984
0.003332175
-0.01208345
0.001803619
-0.01306719
0.0009837384
-0.01365904
0.0005918482
-0.01404618
0.0003871366
-0.01421774
0.0001715649
-0.01427371
5.596669e-05
-0.01426132
-1.238951e-05
-0.01419215
-6.91716e-05
-0.0141041
-8.80437e-05
-0.01395647
-0.0001476311
-0.01376738
-0.0001890927
-0.01351983
-0.000247548
-0.01324767
-0.000272168
-0.01295675
-0.0002909192
-0.01261241
-0.0003443309
-0.0122478
-0.0003646174
-0.01187363
-0.0003741633
-0.01143699
-0.0004366426
-0.01097742
-0.0004595743
-0.01049278
-0.0004846328
-0.01000053
-0.0004922563
-0.009486905
-0.0005136232
-0.008925903
-0.0005610023
-0.0083711
-0.0005548023
-0.007775821
-0.0005952793
-0.007163672
-0.0006121492
-0.006544004
-0.0006196676
-0.005915567
-0.0006284374
-0.00525799
-0.0006575772
-0.004597678
-0.0006603118
-0.003928472
-0.0006692059
-0.00324444
-0.000684032
-0.002555491
-0.0006889491
-0.001887572
-0.0006679183
-0.001172317
-0.0007152548
-0.0004862566
-0.0006860609
0.0001664727
-0.0006527292
0.0007954123
-0.0006289396
0.001532771
-0.0007373586
0.002264382
-0.0007316109
0.002985396
-0.0007210147
0.003692258
-0.0007068613
0.004381671
-0.0006894129
0.005069362
-0.0006876916
0.005734202
-0.0006648396
0.00640962
-0.0006754178
0.007064424
-0.0006548045
0.007683196
-0.0006187714
0.008305519
-0.0006223231
0.008914963
-0.0006094447
0.009501165
-0.0005862018
0.01008404
-0.0005828791
0.01065307
-0.0005690232
0.01116682
-0.0005137477
0.01167715
-0.0005103332
0.01217235
-0.0004951989
0.01262618
-0.00045383
0.01308098
-0.0004548073
0.01348246
-0.000401472
0.01385685
-0.0003743949
0.01419209
-0.0003352417
0.01448437
-0.0002922717
0.01477236
-0.0002879999
0.01502312
-0.0002507556
0.0152344
-0.0002112776
0.01540284
-0.0001684456
0.01552901
-0.0001261654
0.01562463
-9.562536e-05
0.01565877
-3.41327e-05
0.01566236
-3.590822e-06
0.01557229
9.006987e-05
0.01530504
0.0002672479
0.01488048
0.0004245597
0.01427783
0.000602646
0.01337154
0.0009062936
0.01179277
0.001578766
0.008795148
0.002997627
0.003826082
0.004969066
-0.001391948
0.00521803
-0.002865622
0.001473674
-0.0005835135
-0.002282109
0.002125919
-0.002709432
0.0004685306
0.001657388
-0.007331984
0.007800514
-0.0120272
0.004695213
-0.01062349
-0.001403708
-0.007035471
-0.003588017
-0.004522238
-0.002513233
-0.003207041
-0.001315197
-0.001843142
-0.001363899
0.0009858346
-0.002828977
0.004264647
-0.003278813
0.004259509
5.138088e-06
0.0007700499
0.003489459
-0.002400971
0.00317102
-0.003232252
0.0008312812
-0.002804077
-0.0004281749
-0.002599227
-0.0002048506
-0.003005418
0.0004061908
-0.002947002
-5.84155e-05
-0.001719256
-0.001227746
0.0006026992
-0.002321955
0.003143542
-0.002540843
0.003302311
-0.0001587686
0.000749474
0.002552837
-0.001318132
0.002067606
1.727097e-05
-0.001335403
0.002441243
-0.002423973
0.001999953
0.0004412902
0.0008839156
0.001116038
0.0008692781
1.463745e-05
-0.001028534
0.001897812
-0.004379974
0.00335144
-0.006249468
0.001869494
-0.006523167
0.0002736984
-0.0004159333
-0.006760119
0.007798166
-0.001807693
-0.005467785
-0.002292933
-0.003996259
-0.002628283
-0.00236479
-0.002944324
-0.0008792336
-0.002659849
0.0006062509
-0.002668187
0.002108338
-0.002684491
0.003337
-0.002193395
0.004059868
-0.001192471
0.004369274
6.863786e-05
0.003388149
0.002517224
0.001138188
0.003824551
-0.0005946565
0.002465423
-0.001342546
0.0008842287
-0.001674314
0.0002321408
-0.002248867
0.0007646666
-0.003059603
0.0009646954
-0.003813739
0.0008682861
-0.003614706
0.0001548525
-0.001283872
-0.003248049
0.002049983
-0.005768894
0.004889167
-0.005274009
0.007252171
-0.004391639
0.00815007
-0.001488654
0.00702432
0.002544306
0.004267576
0.005765573
-0.002215961
0.01107197
-0.005633226
0.004611083
-0.003139489
-0.005087293
-0.001401396
-0.003988921
-0.0008386056
-0.001755213
0.0007163036
-0.003248108
0.00377864
-0.00613582
0.007324919
-0.006128226
0.00725071
0.002719497
0.002119231
0.01131417
-0.004056059
0.00823682
-0.009577875
0.004406398
-0.01484977
0.007404298
-0.0185776
0.008387487
-0.0202227
0.004977277
-0.0206029
0.002183813
-0.02069154
0.001072381
-0.02067341
0.0005737204
-0.02060822
0.0003219466
-0.02043437
-2.286766e-06
-0.02024262
-0.0001357857
-0.02004396
-0.0002110429
-0.01979971
-0.0003134248
-0.01953559
-0.0003521644
-0.01921078
-0.0004724438
-0.01884508
-0.0005547867
-0.01841644
-0.0006761941
-0.01796219
-0.0007264162
-0.01749462
-0.0007584859
-0.01696946
-0.0008694931
-0.01641985
-0.0009142271
-0.01586441
-0.0009296063
-0.01523733
-0.001063719
-0.01458837
-0.001108533
-0.01391046
-0.001162546
-0.01322339
-0.001179328
-0.01251689
-0.001220121
-0.01175407
-0.001323821
-0.01100036
-0.001308511
-0.01020417
-0.001391466
-0.009386279
-0.001430045
-0.008562884
-0.001443062
-0.007733207
-0.001458115
-0.006867937
-0.001522847
-0.005998615
-0.001529633
-0.005121062
-0.001546759
-0.004227212
-0.001577882
-0.003330208
-0.001585953
-0.002454426
-0.0015437
-0.001530196
-0.001639485
-0.0006377778
-0.00157848
0.0002172401
-0.001507747
0.001045969
-0.001457668
0.001995652
-0.001687042
0.002944178
-0.001680137
0.003881615
-0.001658452
0.004801395
-0.001626641
0.00570352
-0.001591539
0.006605514
-0.001589685
0.007481271
-0.001540596
0.008369662
-0.001563809
0.009235035
-0.001520177
0.01005645
-0.001440187
0.0108846
-0.00145047
0.01170219
-0.001427032
0.01249062
-0.001374638
0.01327601
-0.001368271
0.0140497
-0.001342707
0.01475847
-0.001222525
0.01546759
-0.001219453
0.01615989
-0.001187495
0.01680604
-0.001099981
0.0174555
-0.001104265
0.01804239
-0.0009883607
0.01860647
-0.0009384776
0.01912668
-0.0008554559
0.01959982
-0.0007654128
0.0200753
-0.0007634733
0.02051126
-0.0006867198
0.02090409
-0.0006041031
0.0212534
-0.0005177552
0.02155908
-0.0004318472
0.02183614
-0.0003726818
0.0220484
-0.0002463944
0.02226214
-0.0002173294
0.02245574
-0.0001035365
0.02256011
0.000162879
0.02261382
0.0003708478
0.02262495
0.0005915231
0.02255452
0.0009767219
0.02223921
0.001894069
0.02105982
0.004177024
0.01722087
0.00880801
0.01134138
0.01109752
0.006591814
0.00622324
0.003362812
0.0009468934
0.001915899
-0.00126252
-0.002391583
0.00596487
-0.0102312
0.01564013
-0.01219168
0.006655697
-0.00928181
-0.004313584
-0.005345733
-0.007524094
-0.002929048
-0.004929918
-0.001904041
-0.002340205
-0.0007587888
-0.002509151
0.001898835
-0.0054866
0.005793416
-0.007173394
0.004877991
0.0009205628
-0.0007486972
0.009116147
-0.004382357
0.00680468
-0.004658704
0.001107629
-0.003753651
-0.001333229
-0.002533191
-0.001425311
-0.002586071
0.0004590715
-0.003231334
0.0005868468
-0.002202401
-0.002256679
0.0006379551
-0.005162311
0.00367321
-0.005576098
0.005100638
-0.001586196
0.002762221
0.004891254
-0.0008168797
0.005646707
0.0003170455
-0.002469329
0.003586421
-0.005693348
0.003501847
0.0005258637
0.00206422
0.002553665
-0.0004703188
0.002549176
-0.005162249
0.006589743
-0.008395481
0.006584671
-0.00886013
0.002334144
-0.008435281
-0.0001511509
-0.001053048
-0.008107294
0.009351773
-0.003052172
-0.006548344
-0.003851884
-0.004775606
-0.004401021
-0.002820802
-0.004899128
-0.001037051
-0.0044436
0.0007354957
-0.004440733
0.002523153
-0.004472148
0.004035614
-0.003705856
0.004834065
-0.001990922
0.00522917
-0.0003264666
0.004923333
0.002823061
0.003152521
0.005595364
0.0008015459
0.004816398
-0.0008368152
0.00252259
-0.001783972
0.001179297
-0.002842217
0.001822912
-0.004264445
0.002386924
-0.005150506
0.001754347
-0.004259792
-0.0007358617
-0.001139379
-0.006368462
0.002551424
-0.009459697
0.005673531
-0.008396115
0.008372641
-0.007090749
0.00932363
-0.002439644
0.007692702
0.004175234
0.005223339
0.008234935
-0.001413785
0.0177091
-0.006849963
0.01004726
-0.006470174
-0.005467081
-0.006428848
-0.004030248
-0.006638056
-0.001546006
-0.005210232
-0.004675931
-0.001752838
-0.009593215
0.001247253
-0.009128316
0.003305682
0.0006610682
-0.0006056812
0.01522553
-0.01192727
0.0195584
-0.02065776
0.0131369
-0.02387299
0.01061953
-0.02441185
0.008926346
-0.02422976
0.004795182
-0.02420445
0.002158503
-0.02429465
0.001162581
-0.0243492
0.0006282702
-0.02436269
0.0003354398
-0.02422738
-0.0001375995
-0.02403862
-0.0003245394
-0.02381605
-0.0004336176
-0.02353393
-0.0005955464
-0.02323164
-0.0006544521
-0.02285385
-0.0008502356
-0.02242843
-0.0009802094
-0.02192689
-0.001177729
-0.02139367
-0.001259641
-0.02084582
-0.00130633
-0.02022643
-0.001488885
-0.01957781
-0.001562843
-0.01892355
-0.001583869
-0.01818086
-0.001806408
-0.01741217
-0.001877223
-0.01660848
-0.001966239
-0.01579353
-0.001994275
-0.01495533
-0.002058328
-0.01404735
-0.002231793
-0.01315145
-0.00220441
-0.0122023
-0.002340624
-0.01122735
-0.002404994
-0.01024506
-0.002425352
-0.009254789
-0.002448384
-0.008221423
-0.002556213
-0.007182863
-0.002568193
-0.00613342
-0.002596202
-0.005064772
-0.002646529
-0.003991074
-0.002659652
-0.002940572
-0.002594201
-0.001835273
-0.002744784
-0.0007665184
-0.002647234
0.0002598758
-0.002534141
0.00126098
-0.002458773
0.002397829
-0.002823891
0.003534953
-0.002817261
0.0046587
-0.002782199
0.005759698
-0.002727639
0.006838956
-0.002670796
0.007917127
-0.002667857
0.008962536
-0.002586004
0.01002258
-0.002623849
0.01105349
-0.002551091
0.01203123
-0.002417928
0.0130168
-0.002436043
0.01398841
-0.002398639
0.01492451
-0.002310739
0.01585704
-0.002300801
0.01677478
-0.002260444
0.01761375
-0.002061495
0.01845378
-0.002059479
0.01927273
-0.002006445
0.0200349
-0.001862154
0.02080303
-0.001872398
0.02149352
-0.001678847
0.02215776
-0.001602722
0.02276817
-0.001465863
0.02332
-0.001317243
0.02387649
-0.00131996
0.02438346
-0.001193691
0.02483962
-0.001060263
0.02524246
-0.0009206008
0.02559302
-0.0007824059
0.02590901
-0.0006886666
0.02614871
-0.000486103
0.02638124
-0.0004498577
0.02655522
-0.0002775125
0.02659321
0.0001248862
0.02656402
0.0004000395
0.02649631
0.0006592276
0.02641456
0.001058476
0.02633642
0.001972212
0.02654754
0.003965903
0.02631632
0.009039234
0.02430698
0.01310686
0.02102873
0.009501487
0.01592506
0.006050561
0.007599701
0.007062843
-0.002320747
0.01588532
-0.008238768
0.02155815
-0.009239777
0.007656706
-0.006442913
-0.007110447
-0.001828425
-0.01213858
0.000896602
-0.007654945
0.001543005
-0.002986607
0.001684489
-0.002650636
0.003291918
-0.00709403
0.006067082
-0.009948558
0.003326753
0.003660891
-0.002866871
0.01530977
-0.00585359
0.009791399
-0.006192116
0.001446154
-0.005177893
-0.002347452
-0.003405666
-0.003197538
-0.002900883
-4.571149e-05
-0.003779436
0.0014654
-0.002790168
-0.003245948
0.0007116119
-0.008664091
0.004124119
-0.008988605
0.006209955
-0.003672032
0.005072729
0.00602848
0.001695929
0.009023506
0.001929451
-0.002702851
0.00457824
-0.008342136
0.004325017
0.0007790869
0.001823888
0.005054793
-0.003326082
0.007699146
-0.0087568
0.01202046
-0.01047185
0.008299726
-0.01040125
0.002263543
-0.01012652
-0.0004258851
-0.001827795
-0.009845798
0.01133285
-0.004539221
-0.007958926
-0.005738755
-0.005807679
-0.006552268
-0.003433955
-0.007272853
-0.001273913
-0.006603642
0.0008480465
-0.006562692
0.002996482
-0.006620584
0.004835632
-0.005545006
0.005848285
-0.003003575
0.006240747
-0.0007189288
0.006117584
0.002946224
0.004934472
0.006778475
0.002559465
0.007191405
9.524935e-05
0.004986805
-0.001750953
0.0030255
-0.00334336
0.003415318
-0.005133913
0.004177477
-0.005973286
0.00259372
-0.004664749
-0.002044399
-0.0011535
-0.009879711
0.002737682
-0.01335088
0.006177435
-0.01183587
0.009328799
-0.01024211
0.01041265
-0.003523497
0.008193548
0.006394339
0.005402582
0.0110259
-0.001296703
0.02440838
-0.008577842
0.0173284
-0.01118447
-0.002860458
-0.01311522
-0.002099495
-0.01405774
-0.0006034814
-0.01303743
-0.005696246
-0.009841448
-0.01278919
-0.005418291
-0.01355147
-0.003583125
-0.001174098
-0.01027352
0.02191593
-0.02225574
0.03154062
-0.0286491
0.01953026
-0.02919639
0.01116681
-0.0288459
0.008575861
-0.02888925
0.004838532
-0.02919176
0.00246101
-0.02940476
0.001375583
-0.02949344
0.0007169501
-0.029505
0.0003470004
-0.02931626
-0.0003263432
-0.02906277
-0.0005780318
-0.02877209
-0.0007242973
-0.02841009
-0.0009575473
-0.02802747
-0.001037063
-0.02755717
-0.001320544
-0.02703117
-0.001506202
-0.02641486
-0.001794045
-0.02576164
-0.00191286
-0.02509226
-0.001975712
-0.02433899
-0.002242153
-0.02355093
-0.002350904
-0.02275686
-0.002377933
-0.02186009
-0.002703183
-0.02093046
-0.002806853
-0.01995999
-0.002936706
-0.01897743
-0.002976837
-0.01796845
-0.003067303
-0.01687467
-0.003325576
-0.01579825
-0.00328083
-0.01465676
-0.003482113
-0.01348618
-0.003575571
-0.01230598
-0.003605558
-0.01111694
-0.003637421
-0.009876559
-0.003796595
-0.008630134
-0.003814618
-0.007370475
-0.003855861
-0.006089951
-0.003927053
-0.00480094
-0.003948663
-0.003539084
-0.003856057
-0.002210423
-0.004073446
-0.0009244929
-0.003933164
0.000313499
-0.003772133
0.001527776
-0.00367305
0.002895013
-0.004191128
0.004260746
-0.004182993
0.005612553
-0.004134006
0.006934351
-0.004049437
0.00822794
-0.003964385
0.009518603
-0.00395852
0.01076899
-0.00383639
0.01203913
-0.003893991
0.01327189
-0.003783846
0.01444426
-0.003590304
0.01562762
-0.003619402
0.01679262
-0.003563636
0.01791879
-0.003436913
0.0190429
-0.003424912
0.02014645
-0.003363987
0.02115952
-0.003074567
0.02217482
-0.003074781
0.02316388
-0.002995506
0.02408743
-0.002785708
0.02501879
-0.002803752
0.02585822
-0.002518274
0.02666628
-0.002410784
0.02741106
-0.002210644
0.02808945
-0.001995634
0.02877312
-0.002003624
0.02939757
-0.001818143
0.02996419
-0.00162688
0.03046606
-0.001422471
0.03090938
-0.001225732
0.03131354
-0.001092824
0.03162657
-0.0007991384
0.03193417
-0.0007574522
0.03217444
-0.0005177856
0.03224148
5.784578e-05
0.03220865
0.0004328665
0.03210453
0.0007633572
0.03191259
0.001250411
0.03156915
0.002315647
0.03134449
0.004190568
0.03188016
0.008503564
0.03234125
0.01264577
0.03130339
0.01053935
0.0277056
0.009648352
0.01704801
0.01772043
0.002810513
0.03012282
-0.00362909
0.02799776
-0.003984666
0.008012282
-0.0006617763
-0.01043334
0.003644077
-0.01644444
0.006424762
-0.01043563
0.006646754
-0.003208599
0.005760408
-0.001764289
0.005514733
-0.006848354
0.005755025
-0.01018885
0.001047911
0.008368005
-0.004726083
0.02108377
-0.007113825
0.01217914
-0.007905347
0.002237676
-0.007142652
-0.003110147
-0.005411014
-0.004929176
-0.004482398
-0.0009743274
-0.004926515
0.001909517
-0.003398798
-0.004773666
0.0008466664
-0.01290955
0.004813027
-0.01295497
0.007288248
-0.006147253
0.007259896
0.006056831
0.004936105
0.0113473
0.004489202
-0.002255948
0.005854599
-0.009707533
0.004871647
0.00176204
0.0005106531
0.009415786
-0.006973155
0.01518295
-0.01165099
0.01669829
-0.0124122
0.009060939
-0.01252619
0.002377529
-0.01225527
-0.0006968074
-0.002750215
-0.01207733
0.01385
-0.006311888
-0.009806934
-0.008009149
-0.007199504
-0.009159698
-0.004292779
-0.01017958
-0.001653181
-0.00924324
0.0009004881
-0.009116361
0.003488944
-0.00920904
0.005722205
-0.007778267
0.006999876
-0.004281245
0.007494778
-0.001213831
0.007328983
0.003112018
0.006405279
0.00770218
0.004242222
0.009354462
0.001193739
0.008035288
-0.001605471
0.00582471
-0.003774198
0.005584046
-0.005653902
0.00605718
-0.006361997
0.003301815
-0.004918107
-0.003488288
-0.001378053
-0.01341977
0.002507237
-0.01723617
0.006299498
-0.01562813
0.01007063
-0.01401325
0.01137129
-0.004824149
0.008453812
0.009311813
0.004907603
0.01457211
-0.002154472
0.03147046
-0.0113427
0.02651663
-0.01733296
0.003129805
-0.02119161
0.001759149
-0.02301349
0.001218403
-0.02296883
-0.005740912
-0.02118122
-0.0145768
-0.01790668
-0.01682602
-0.01824184
-0.0008389408
-0.02491057
0.02858466
-0.03237937
0.03900942
-0.0342594
0.0214103
-0.0339782
0.01088562
-0.03410898
0.008706638
-0.03439111
0.005120665
-0.03474703
0.002816929
-0.03499931
0.001627861
-0.03511947
0.0008371044
-0.03516967
0.0003971995
-0.03496666
-0.0005293498
-0.0346901
-0.0008545861
-0.03436572
-0.001048681
-0.03394264
-0.001380624
-0.03351035
-0.001469359
-0.03295673
-0.001874162
-0.03234258
-0.002120352
-0.03161241
-0.002524216
-0.03083873
-0.002686539
-0.03004898
-0.00276546
-0.02915093
-0.003140209
-0.02821171
-0.003290118
-0.02726871
-0.003320935
-0.02619902
-0.003772873
-0.02508679
-0.003919088
-0.02392646
-0.004097032
-0.02275379
-0.004149505
-0.02154904
-0.004272056
-0.02023642
-0.004638194
-0.01895176
-0.004565491
-0.01758302
-0.004850849
-0.01618296
-0.004975639
-0.01476936
-0.005019149
-0.01334749
-0.005059293
-0.01186073
-0.005283362
-0.0103667
-0.005308646
-0.008854374
-0.005368184
-0.007320958
-0.005460469
-0.005775411
-0.00549421
-0.004264116
-0.005367352
-0.002665656
-0.005671906
-0.001114976
-0.005483843
0.0003809802
-0.005268089
0.001854145
-0.005146214
0.003500695
-0.005837679
0.005140498
-0.005822796
0.006765526
-0.005759034
0.008345519
-0.00562943
0.009887245
-0.005506111
0.01142615
-0.005497425
0.01291691
-0.005327152
0.01443769
-0.005414773
0.01590786
-0.005254015
0.01731307
-0.004995514
0.01873435
-0.005040673
0.02012523
-0.004954519
0.02147525
-0.004786936
0.02282794
-0.004777601
0.02414608
-0.004682121
0.02535846
-0.004286955
0.02657594
-0.004292254
0.02775791
-0.004177482
0.02885811
-0.003885901
0.02997375
-0.003919396
0.03097282
-0.003517347
0.03193411
-0.003372068
0.03281808
-0.003094619
0.03361879
-0.002796338
0.03442913
-0.002813967
0.03516079
-0.002549803
0.03582825
-0.002294334
0.03641074
-0.002004961
0.03692273
-0.001737724
0.03739135
-0.001561451
0.03773549
-0.001143272
0.0380823
-0.001104266
0.0383374
-0.0007728811
0.03838925
5.993394e-06
0.03831669
0.0005054293
0.03816646
0.0009135852
0.0379304
0.00148647
0.03755853
0.002687513
0.03713334
0.00461576
0.03728586
0.00835104
0.03784716
0.01208447
0.03740605
0.01098046
0.03604191
0.01101249
0.02854582
0.02521653
0.01436898
0.04429966
0.00491756
0.03744917
0.003897657
0.009032185
0.007442721
-0.0139784
0.01201775
-0.02101946
0.01421147
-0.01262935
0.01380113
-0.002798256
0.0116489
0.0003879356
0.008850008
-0.004049458
0.005501641
-0.006840483
-0.0008279502
0.0146976
-0.005995799
0.02625161
-0.008460706
0.01464405
-0.009900188
0.003677157
-0.009679692
-0.003330644
-0.008415146
-0.006193721
-0.007202893
-0.002186581
-0.006495966
0.00120259
-0.003823493
-0.007446138
0.001098036
-0.01783108
0.005660736
-0.01751767
0.008322672
-0.008809189
0.009046167
0.005333336
0.007531012
0.01286245
0.006609377
-0.001334314
0.006862628
-0.009960784
0.004496673
0.004127995
-0.002576148
0.01648861
-0.01105516
0.02366197
-0.01437886
0.020022
-0.01488663
0.009568701
-0.01530222
0.002793119
-0.01492759
-0.001071437
-0.003827807
-0.01487263
0.01697308
-0.008412341
-0.01217029
-0.01071149
-0.009057483
-0.01227251
-0.005486263
-0.0137508
-0.002238563
-0.01249094
0.0008629428
-0.01221787
0.003986603
-0.0123327
0.006671443
-0.01046311
0.008221567
-0.005831369
0.008942853
-0.001935117
0.008730838
0.003324033
0.007767603
0.008665416
0.005698589
0.01142348
0.002357106
0.01137677
-0.001393467
0.009575283
-0.004134754
0.008325333
-0.005757235
0.007679662
-0.006174787
0.003719366
-0.004969077
-0.004693997
-0.001897832
-0.01649101
0.001784501
-0.0209185
0.006050718
-0.01989434
0.01068104
-0.01864357
0.01230946
-0.006452569
0.008437546
0.01318373
0.003845854
0.0191638
-0.004107909
0.03942422
-0.01519415
0.03760287
-0.02424438
0.01218003
-0.02957362
0.007088388
-0.03243916
0.004083945
-0.03401052
-0.004169551
-0.0349876
-0.01359972
-0.03556874
-0.01624488
-0.03791778
0.001510103
-0.04080616
0.03147304
-0.04114642
0.03934969
-0.04022741
0.02049129
-0.04067615
0.01133436
-0.04117933
0.009209818
-0.04155897
0.005500298
-0.04195296
0.003210926
-0.04223828
0.001913176
-0.04232992
0.0009287429
-0.04235443
0.0004217166
-0.04207355
-0.0008102362
-0.04173027
-0.001197862
-0.04132326
-0.001455689
-0.0407889
-0.001914984
-0.04026918
-0.001989085
-0.03958976
-0.002553575
-0.03884776
-0.002862354
-0.03796163
-0.003410349
-0.03702342
-0.003624748
-0.03607392
-0.003714959
-0.03498754
-0.004226589
-0.03385552
-0.004422134
-0.03272594
-0.004450522
-0.0314395
-0.005059313
-0.03009761
-0.005260971
-0.02870435
-0.0054903
-0.02729643
-0.005557421
-0.02585366
-0.005714825
-0.02427119
-0.006220667
-0.02273759
-0.006099089
-0.0210914
-0.006497037
-0.01941268
-0.006654358
-0.01771792
-0.006713915
-0.01601772
-0.006759488
-0.01423868
-0.007062399
-0.01245428
-0.00709305
-0.01063927
-0.007183193
-0.00880395
-0.007295791
-0.006944392
-0.007353768
-0.005141194
-0.007170549
-0.003222461
-0.007590639
-0.001345648
-0.007360656
0.0004659986
-0.007079736
0.002254547
-0.006934762
0.004240806
-0.007823938
0.006211898
-0.007793887
0.008151321
-0.007698458
0.01002571
-0.007503823
0.01185752
-0.007337916
0.01369308
-0.007332989
0.0154753
-0.007109369
0.01730638
-0.007245849
0.01906298
-0.007010623
0.02075496
-0.006687485
0.02247263
-0.006758347
0.02413651
-0.006618403
0.02575712
-0.006407538
0.02739762
-0.00641811
0.02897684
-0.006261339
0.03043046
-0.005740571
0.03189775
-0.005759542
0.03331932
-0.00559906
0.0346377
-0.005204273
0.03598378
-0.005265478
0.03718671
-0.004720278
0.03834497
-0.004530328
0.03940824
-0.004157888
0.04037681
-0.003764914
0.04136264
-0.003799796
0.0422437
-0.003430861
0.04306215
-0.003112781
0.04376887
-0.00271168
0.04439992
-0.002368779
0.04497964
-0.002141169
0.04541489
-0.001578523
0.04584941
-0.001538782
0.04617705
-0.001100525
0.04628039
-9.734742e-05
0.04624032
0.000545499
0.04609293
0.001060977
0.04584449
0.001734912
0.04542193
0.003110069
0.0449305
0.005107188
0.04472912
0.008552419
0.04476069
0.01205291
0.04362938
0.01211177
0.04273473
0.01190714
0.04030379
0.02764747
0.03115741
0.05344604
0.02126538
0.0473412
0.01791215
0.01238542
0.02086702
-0.01693327
0.02388637
-0.02403881
0.02457872
-0.01332171
0.02307581
-0.00129535
0.019535
0.003928755
0.01381483
0.001670707
0.006292153
0.0006821937
-0.001810814
0.02280056
-0.006757853
0.03119865
-0.01010404
0.01799024
-0.01222793
0.005801048
-0.01245995
-0.003098623
-0.01156361
-0.007090067
-0.009968828
-0.003781362
-0.007853665
-0.0009125726
-0.003929506
-0.0113703
0.001470666
-0.02323126
0.006591895
-0.02263889
0.009325952
-0.01154325
0.01033423
0.004325062
0.009227493
0.01396919
0.007833571
5.960794e-05
0.006447612
-0.008574825
0.001815242
0.008760365
-0.007664365
0.02596821
-0.01549069
0.0314883
-0.01746702
0.02199833
-0.01818538
0.01028705
-0.01875191
0.00335965
-0.01823472
-0.001588628
-0.005089441
-0.01828472
0.02080477
-0.01093239
-0.01506958
-0.01392663
-0.01145737
-0.01588471
-0.007088517
-0.01811965
-0.003090139
-0.01648932
0.0007078377
-0.01601584
0.004472779
-0.01609764
0.007623461
-0.01361379
0.009428789
-0.007636697
0.01046714
-0.002973468
0.01030058
0.003490591
0.009196741
0.009769256
0.007000587
0.01361963
0.003455536
0.01492182
-0.00117721
0.01420803
-0.004481747
0.01162987
-0.005504429
0.008702344
-0.005384161
0.003599098
-0.004875393
-0.005202765
-0.002770348
-0.01859606
0.0006411559
-0.02433001
0.005520275
-0.02477346
0.01127609
-0.02439939
0.0134321
-0.00860857
0.008223444
0.01839238
0.002226576
0.02516067
-0.007325103
0.0489759
-0.02018994
0.05046771
-0.03108122
0.02307131
-0.03704214
0.01304931
-0.04076084
0.007802642
-0.04388443
-0.001045964
-0.04728946
-0.01019468
-0.05120329
-0.01233105
-0.05450301
0.004809822
-0.05361419
0.03058422
-0.04931622
0.03505172
-0.04803137
0.01920644
-0.04900112
0.01230411
-0.04939482
0.009603518
-0.04979434
0.005899815
-0.05019491
0.003611491
-0.05055936
0.002277632
-0.05063422
0.001003604
-0.05075238
0.0005398737
-0.05039287
-0.00116975
-0.04999598
-0.001594753
-0.04952291
-0.001928757
-0.04886299
-0.002574904
-0.04827549
-0.002576579
-0.0474471
-0.00338197
-0.04657505
-0.003734406
-0.04551301
-0.004472386
-0.04438184
-0.004755921
-0.04325572
-0.004841083
-0.04195762
-0.005524686
-0.0405996
-0.005780152
-0.03924362
-0.005806498
-0.03771091
-0.006592029
-0.03610372
-0.006868163
-0.03443537
-0.007158649
-0.0327288
-0.007263987
-0.03102488
-0.007418746
-0.02910752
-0.008138031
-0.02728245
-0.007924154
-0.02529557
-0.008483916
-0.02328615
-0.008663782
-0.02126013
-0.008739935
-0.01919233
-0.008827286
-0.01707866
-0.009176073
-0.01495382
-0.009217889
-0.01278058
-0.009356426
-0.01060604
-0.009470331
-0.008336158
-0.009623654
-0.00620665
-0.009300057
-0.003905143
-0.009892147
-0.001626949
-0.009638849
0.0005749964
-0.009281682
0.002748156
-0.009107922
0.00514436
-0.01022014
0.007511422
-0.01016095
0.009784545
-0.00997158
0.01200606
-0.00972534
0.01420246
-0.009534311
0.01639746
-0.009527995
0.0185353
-0.009247206
0.0207611
-0.009471647
0.0228672
-0.009116725
0.024896
-0.008716286
0.02696056
-0.008822905
0.02897052
-0.008628366
0.03091913
-0.008356151
0.03287981
-0.008378791
0.03477669
-0.008158219
0.03651426
-0.007478136
0.0382714
-0.007516682
0.0399553
-0.00728296
0.04154914
-0.006798109
0.04316462
-0.006880962
0.044595
-0.006150659
0.04599473
-0.005930056
0.04724996
-0.005413121
0.04840892
-0.004923871
0.04959461
-0.004985486
0.0506283
-0.004464551
0.05161773
-0.004102215
0.0524391
-0.00353305
0.0531933
-0.003122981
0.05389076
-0.002838621
0.05438121
-0.002068972
0.05490087
-0.002058448
0.05530075
-0.001500402
0.05538715
-0.0001837503
0.05529809
0.0006345565
0.05510603
0.001253041
0.05481451
0.002026433
0.05434739
0.003577189
0.05389135
0.005563226
0.05365132
0.008792446
0.05354098
0.01216325
0.05213399
0.01351876
0.05037247
0.01366865
0.05138394
0.026636
0.0505939
0.05423608
0.04517428
0.05276082
0.0406127
0.016947
0.03933489
-0.01565547
0.03878148
-0.0234854
0.03695413
-0.01149436
0.03393557
0.001723216
0.02904542
0.0088189
0.02062907
0.01008706
0.008974666
0.0123366
-0.001281411
0.03305664
-0.007160283
0.03707753
-0.0122364
0.02306635
-0.01502332
0.008587975
-0.01528163
-0.002840319
-0.01406861
-0.008303084
-0.01163351
-0.006216468
-0.008513761
-0.004032317
-0.003764257
-0.0161198
0.001949644
-0.02894516
0.007551773
-0.02824102
0.01031261
-0.01430409
0.01112252
0.003515158
0.009889876
0.01520183
0.00739658
0.002552904
0.002602224
-0.00378047
-0.005103803
0.01646639
-0.01492453
0.03578894
-0.02031767
0.03688144
-0.02135167
0.02303233
-0.0224968
0.01143218
-0.0230436
0.003906442
-0.02233269
-0.002299533
-0.006617365
-0.02249654
0.02564716
-0.01408302
-0.01853719
-0.01788597
-0.01437858
-0.02004332
-0.009214094
-0.02328415
-0.004258811
-0.0214446
0.0004101817
-0.02068484
0.004910907
-0.02059837
0.008500559
-0.01720344
0.01056212
-0.009698258
0.01208808
-0.004499423
0.01194241
0.003636258
0.01074155
0.01097011
0.008218744
0.01614244
0.004493669
0.0186469
-0.0009184181
0.01962012
-0.004823537
0.01553499
-0.005131813
0.00901062
-0.004430408
0.002897692
-0.004946
-0.004687173
-0.004049546
-0.01949251
-0.0009692646
-0.02741029
0.004505889
-0.03024862
0.01153902
-0.03143252
0.01469037
-0.01175992
0.007954258
0.02512849
-0.0003288975
0.03344382
-0.01241005
0.06105705
-0.02680468
0.06486234
-0.03807392
0.03434054
-0.04391044
0.01888583
-0.04827737
0.01216957
-0.05259466
0.003271322
-0.0569857
-0.005803634
-0.06229684
-0.007019919
-0.06595145
0.008464433
-0.06381024
0.02844301
-0.05882002
0.03006149
-0.0581914
0.01857782
-0.05908757
0.01320028
-0.05947358
0.009989529
-0.05997188
0.006398114
-0.06033134
0.003970955
-0.0608135
0.002759792
-0.06079239
0.0009824946
-0.06086218
0.0006096597
-0.06047694
-0.001554991
-0.05997571
-0.002095985
-0.05946534
-0.002439119
-0.05859235
-0.003447893
-0.05792907
-0.003239861
-0.05692085
-0.004390188
-0.05590243
-0.004752831
-0.05460791
-0.005766907
-0.0532209
-0.006142925
-0.05189383
-0.006168157
-0.05036682
-0.007051698
-0.04867747
-0.007469496
-0.04705709
-0.007426877
-0.04524541
-0.008403716
-0.04333645
-0.008777125
-0.04130178
-0.009193314
-0.03923278
-0.009332991
-0.03728269
-0.009368837
-0.03489667
-0.01052405
-0.03275787
-0.01006295
-0.0302995
-0.01094229
-0.0279465
-0.01101678
-0.02552348
-0.01116296
-0.02300239
-0.01134837
-0.02050745
-0.01167101
-0.01793639
-0.01178895
-0.01531678
-0.01197604
-0.01277353
-0.01201358
-0.01000896
-0.01238823
-0.007527714
-0.0117813
-0.004729141
-0.01269072
-0.001981383
-0.01238661
0.0007094895
-0.01197255
0.003370454
-0.01176889
0.006281598
-0.01313129
0.009006971
-0.01288632
0.01165739
-0.012622
0.01434123
-0.01240918
0.01702539
-0.01221847
0.01967348
-0.01217609
0.02221023
-0.01178395
0.02495343
-0.01221484
0.02745967
-0.01162297
0.02990464
-0.01116125