/*--------------------------------*- C++ -*----------------------------------*\
| =========                 |                                                 |
| \\      /  F ield         | OpenFOAM: The Open Source CFD Toolbox           |
|  \\    /   O peration     | Version:  2406                                  |
|   \\  /    A nd           | Website:  www.openfoam.com                      |
|    \\/     M anipulation  |                                                 |
\*---------------------------------------------------------------------------*/
FoamFile
{
    version     2.0;
    format      ascii;
    arch        "LSB;label=32;scalar=64";
    class       volVectorField;
    location    "2";
    object      U;
}
// * * * * * * * * * * * * * * * * * * * * * * * * * * * * * * * * * * * * * //

dimensions      [0 1 -1 0 0 0 0];

internalField   nonuniform List<vector> 
15536
(
(0.1918823 -5.910725 -6.308996e-22)
(0.3383178 -4.972246 -3.473948e-19)
(0.3916724 -3.829891 -5.490228e-19)
(0.3375553 -2.561212 -4.324875e-19)
(0.2001969 -1.299049 -6.283396e-21)
(-0.02275484 -0.1204222 2.677184e-21)
(-0.3273412 1.05898 7.38775e-21)
(-0.6718327 2.11106 -7.208162e-21)
(-0.9873687 2.848914 2.428605e-18)
(-1.168401 3.120473 2.666576e-18)
(-0.8427396 2.159138 0)
(-0.04022287 0.1912241 0)
(0.4748788 -0.8330561 -1.681904e-20)
(0.6340333 -1.047561 3.974434e-18)
(0.6528048 -1.010061 1.692446e-18)
(0.7615117 -1.039296 -3.397774e-18)
(0.9341653 -1.200713 1.845046e-18)
(0.9731318 -1.189637 1.69119e-20)
(1.294521 -1.373064 -3.446378e-20)
(1.343638 -1.329515 1.77106e-20)
(-0.0760907 -0.01703437 0)
(-2.097469 1.693178 4.367264e-18)
(-3.911959 3.045971 0)
(-5.187713 3.853578 8.415013e-18)
(-5.108095 3.628796 -6.687737e-20)
(-3.581552 2.486724 -3.925967e-20)
(0.05775537 0.2617847 3.978767e-20)
(4.061357 -1.996728 -6.852557e-19)
(3.096364 -1.554442 -1.654111e-18)
(-0.3536636 0.02169116 0)
(-1.945314 0.6347443 -2.264371e-20)
(-3.096815 0.9332555 -2.994606e-18)
(-5.301084 1.395217 4.016398e-18)
(-7.959118 1.878527 0)
(-9.61431 2.184483 -8.162054e-18)
(-4.879711 1.202388 -2.37751e-20)
(2.225408 -0.1945823 2.644036e-18)
(1.315455 -0.3781039 -1.40684e-18)
(-0.7872905 -0.1367864 1.513666e-21)
(4.961468 0.2882413 -3.567647e-19)
(9.435112 0.8736791 1.392679e-18)
(11.75435 1.497172 -2.232449e-20)
(12.92593 2.131817 2.195201e-20)
(13.54057 2.79332 0)
(13.85983 3.446991 -5.591658e-18)
(13.98033 4.072214 -5.551708e-18)
(13.92234 4.658455 0)
(13.74779 5.210073 -1.055953e-17)
(13.48442 5.728115 1.026993e-17)
(13.1768 6.222856 9.883607e-18)
(12.81291 6.677834 3.578655e-20)
(12.38877 7.089292 -8.892538e-18)
(11.91245 7.452291 0)
(11.39335 7.768186 0)
(10.8411 8.033174 7.033051e-18)
(10.25361 8.239864 6.382445e-18)
(9.648978 8.398658 4.15094e-20)
(9.033662 8.507838 4.875896e-18)
(8.395471 8.549592 8.356312e-18)
(7.747109 8.531893 3.426384e-18)
(7.096693 8.457863 2.621023e-18)
(6.457107 8.336195 -1.776425e-20)
(5.825456 8.157803 0)
(5.199369 7.916991 3.114657e-19)
(4.592894 7.628682 0)
(4.003835 7.279439 1.244059e-18)
(3.439276 6.876031 -2.759414e-20)
(2.909084 6.428426 -2.63156e-21)
(2.413068 5.934725 1.18897e-20)
(1.955853 5.399699 -4.022276e-18)
(1.542717 4.831099 -1.905793e-20)
(1.174478 4.226461 2.610861e-18)
(0.8526955 3.586685 2.847458e-18)
(0.5824836 2.925725 0)
(0.363574 2.249617 0)
(0.2001611 1.552635 3.383543e-18)
(0.08809766 0.8441997 -8.517753e-23)
(0.03092134 0.1595549 9.046914e-19)
(0.02156663 -0.4910937 1.645718e-21)
(0.06626874 -1.188909 -6.709984e-21)
(0.1628708 -1.932077 -1.656352e-18)
(0.3174415 -2.670784 0)
(0.5283963 -3.387014 2.930267e-18)
(0.7924803 -4.075448 0)
(1.107949 -4.734189 -2.40849e-18)
(1.472695 -5.361751 2.085888e-18)
(1.885589 -5.956118 1.52054e-20)
(2.343306 -6.516115 2.898039e-18)
(2.842795 -7.033051 6.98555e-21)
(3.379457 -7.504618 -1.435951e-18)
(3.950582 -7.932447 -6.354564e-19)
(4.553665 -8.310782 1.54691e-21)
(5.18646 -8.642473 1.046026e-18)
(5.83899 -8.923473 -1.904471e-18)
(6.507596 -9.148795 2.486954e-20)
(7.181316 -9.305302 6.796518e-21)
(7.865364 -9.408136 -4.455131e-18)
(8.555389 -9.457428 0)
(9.24239 -9.444979 1.214179e-17)
(9.928895 -9.38182 6.814245e-18)
(10.59482 -9.253493 1.169933e-19)
(11.23679 -9.062975 -8.493289e-18)
(11.85103 -8.813582 0)
(12.4361 -8.509572 0)
(12.99107 -8.1593 0)
(13.50727 -7.760617 0)
(13.97454 -7.314554 1.169221e-17)
(14.38973 -6.825076 1.229691e-17)
(14.75335 -6.297218 2.890978e-20)
(15.05913 -5.73827 -1.312645e-17)
(15.29248 -5.14713 -6.682862e-18)
(15.42976 -4.524296 -6.883862e-18)
(15.42651 -3.867915 5.380798e-20)
(15.25474 -3.184314 6.989964e-18)
(14.88973 -2.48514 3.588589e-18)
(14.26211 -1.788594 -2.769941e-20)
(13.18577 -1.139493 -6.651335e-21)
(11.14928 -0.5692468 4.361868e-19)
(7.278495 -0.1316174 -8.531136e-19)
(0.4687581 -0.03513561 -2.174226e-20)
(-3.932816 -0.263514 1.527514e-20)
(-1.751541 0.05359888 3.563964e-18)
(0.8968868 0.4520318 2.466526e-20)
(4.388809 1.05022 0)
(-4.024352 -1.675681 -7.917653e-18)
(-10.92793 -4.058754 -9.786532e-18)
(-10.86817 -4.154587 4.836566e-21)
(-8.153322 -3.342002 1.005391e-17)
(-5.387495 -2.447712 -6.314546e-18)
(-3.696619 -1.863644 0)
(-2.466233 -1.314985 0)
(-0.5832035 -0.201509 -2.047348e-18)
(2.443172 1.783854 0)
(4.427724 3.178961 1.107919e-20)
(2.474389 1.737951 -2.222438e-18)
(-1.089909 -1.211623 -4.777696e-18)
(-2.356616 -2.331518 5.800078e-20)
(-2.089804 -2.160414 -1.578719e-17)
(-1.673036 -1.902597 -1.207389e-19)
(-1.74996 -2.147361 1.435261e-17)
(-2.066229 -2.646227 6.014652e-18)
(-1.547361 -2.059733 4.654033e-18)
(-0.4357302 -0.4690066 3.293924e-18)
(0.8474239 1.592964 0)
(2.001241 3.527903 -1.257445e-20)
(1.444423 2.523431 -3.214546e-18)
(-0.4243334 -1.130708 0)
(-0.5886626 -1.346529 3.209538e-18)
(0.4348268 1.46983 -2.623178e-20)
(0.8928016 2.689485 1.37748e-20)
(0.4565713 1.431715 1.744167e-18)
(0.1270847 0.7513062 1.057447e-21)
(0.1507273 0.7307433 0)
(-0.2060086 -3.110648 9.022307e-19)
(-0.3569176 -6.026558 7.360545e-21)
(-0.2580305 -6.803908 1.958116e-21)
(-0.0258827 -6.546409 -2.78439e-21)
(-0.03224274 -6.245075 -1.740309e-19)
(0.1506466 -5.237163 2.831569e-19)
(0.2373775 -4.028917 0)
(0.2055623 -2.70298 3.52781e-19)
(0.09650603 -1.387296 0)
(-0.1245618 -0.1542751 1.264098e-18)
(-0.4455026 1.071947 6.005082e-21)
(-0.8161614 2.208873 -5.876446e-21)
(-1.136223 2.966566 -1.987249e-18)
(-1.380885 3.459446 -2.18582e-18)
(-1.390735 3.511549 0)
(-0.7111144 1.939303 1.494643e-20)
(0.1344429 -0.01903039 -1.921614e-21)
(0.4690904 -0.7393966 -1.645793e-18)
(0.701373 -1.080028 -2.833497e-18)
(1.006071 -1.365638 1.379175e-18)
(1.371554 -1.713006 -1.462642e-18)
(1.986616 -2.279696 -1.227227e-20)
(2.455752 -2.62677 0)
(1.522827 -1.770086 0)
(-0.5291884 0.02881628 0)
(-2.473722 1.701436 3.480926e-18)
(-4.230526 3.016636 4.642897e-20)
(-5.42541 3.832029 -4.654171e-20)
(-5.578319 3.879552 4.867124e-20)
(-4.508351 3.132944 -4.804683e-20)
(-1.538422 1.553437 0)
(4.814331 -2.237658 0)
(4.0383 -2.266027 2.597163e-18)
(1.348738 -0.8978874 2.878311e-20)
(0.7013969 -0.4302253 -3.024775e-20)
(0.101381 -0.2725042 2.588686e-18)
(-1.6845 0.04018522 3.446694e-18)
(-4.036391 0.5183803 -4.754052e-20)
(-6.650449 1.422074 -6.959407e-18)
(-6.086046 1.626112 2.891879e-18)
(1.2317 0.2410758 -3.930004e-21)
(6.804959 -0.3826218 1.008559e-18)
(10.37809 0.1464588 0)
(14.75648 0.693242 2.405344e-19)
(17.08763 1.092852 1.982331e-18)
(17.53328 1.52707 2.107876e-18)
(17.59431 2.08637 2.169084e-18)
(17.48984 2.716074 -6.812867e-20)
(17.30493 3.356738 4.47008e-18)
(17.05619 3.996281 -3.410983e-20)
(16.75875 4.629624 0)
(16.41128 5.238946 8.421971e-18)
(16.01162 5.825107 0)
(15.56449 6.379119 -5.942528e-20)
(15.06692 6.889607 5.956965e-20)
(14.51532 7.353171 7.105908e-18)
(13.91735 7.763275 -4.954601e-20)
(13.28031 8.11949 6.152703e-18)
(12.61126 8.419151 -5.662297e-18)
(11.91392 8.658716 0)
(11.19867 8.846461 3.279851e-20)
(10.47234 8.97785 -4.003924e-18)
(9.730815 9.040361 -6.652492e-18)
(8.978963 9.035687 0)
(8.22901 8.973757 -2.106614e-18)
(7.489773 8.855771 -8.917328e-21)
(6.762028 8.674609 8.234383e-19)
(6.046554 8.43014 -8.166458e-22)
(5.35043 8.127915 8.263479e-22)
(4.678739 7.764017 -1.010324e-18)
(4.034162 7.342621 1.616636e-18)
(3.427251 6.868671 0)
(2.859148 6.347647 0)
(2.335046 5.783529 -1.553454e-20)
(1.859021 5.178123 0)
(1.434025 4.532961 0)
(1.061937 3.850869 0)
(0.747523 3.142468 -2.529726e-18)
(0.4891116 2.418391 2.024956e-20)
(0.298699 1.669898 1.106319e-20)
(0.1636562 0.9107138 -5.404384e-21)
(0.09355913 0.1721825 -7.433042e-19)
(0.08376936 -0.5359958 2.94835e-21)
(0.1490342 -1.287469 -7.149987e-19)
(0.2677811 -2.083 1.348976e-18)
(0.4535482 -2.872497 1.023236e-20)
(0.703394 -3.637073 -2.374101e-18)
(1.013063 -4.373023 -3.433485e-20)
(1.381327 -5.078723 1.993856e-18)
(1.804516 -5.747825 -1.737198e-18)
(2.282974 -6.379887 0)
(2.809295 -6.974712 -4.73611e-18)
(3.381976 -7.518234 -1.16342e-20)
(3.997941 -8.013788 1.165401e-18)
(4.651392 -8.464884 5.21098e-19)
(5.339943 -8.858434 0)
(6.061752 -9.197679 0)
(6.807782 -9.487091 0)
(7.571561 -9.709136 1.956805e-20)
(8.347666 -9.860881 -1.943788e-20)
(9.135445 -9.953489 3.503046e-18)
(9.929493 -9.985208 5.474538e-21)
(10.7257 -9.952273 -4.91051e-18)
(11.5181 -9.859512 -7.884257e-20)
(12.29635 -9.702026 1.228226e-17)
(13.05237 -9.477383 6.751581e-18)
(13.78189 -9.188698 -5.466972e-20)
(14.48775 -8.842012 7.745811e-18)
(15.16474 -8.44237 6.303362e-20)
(15.80446 -7.985886 -7.078894e-20)
(16.39945 -7.478115 7.049581e-20)
(16.94608 -6.921797 7.686653e-20)
(17.44402 -6.323465 1.00768e-17)
(17.88976 -5.687723 -7.928e-20)
(18.26679 -5.016399 0)
(18.58891 -4.31957 0)
(18.87499 -3.610132 0)
(19.10888 -2.898182 0)
(19.269 -2.189949 2.102583e-20)
(19.33193 -1.484306 -2.095195e-20)
(19.25663 -0.8374333 1.279357e-18)
(18.87367 -0.3293368 4.87338e-21)
(17.36703 -0.01644692 0)
(12.11119 0.1656708 -1.232096e-18)
(6.77782 0.4383837 2.859572e-18)
(4.559973 0.8922961 -2.819713e-18)
(2.264805 0.7453781 3.313804e-20)
(1.860729 0.1034255 -3.937755e-18)
(-7.034509 -2.916864 2.519841e-20)
(-10.25157 -3.663199 0)
(-8.138598 -2.623034 1.364869e-17)
(-5.686616 -1.796353 -1.674174e-17)
(-3.244519 -1.115863 -5.195179e-18)
(-2.080409 -0.8427026 -9.62779e-21)
(-1.303523 -0.4937982 -4.78055e-20)
(0.02625711 0.4770105 1.834477e-20)
(2.517298 2.267569 0)
(5.103831 3.755672 5.127571e-19)
(1.70664 0.7407428 1.688696e-18)
(-2.415526 -2.587948 -1.445908e-20)
(-2.899476 -2.783492 -5.623198e-18)
(-2.624425 -2.542041 1.283488e-17)
(-1.771254 -1.841921 6.47515e-18)
(-1.078863 -1.3391 -2.994373e-23)
(-1.621437 -2.102488 -4.993737e-18)
(-1.705603 -2.137804 -3.416356e-20)
(-0.6471178 -0.440509 -2.642058e-18)
(0.6266267 1.690154 1.833515e-20)
(1.822338 3.523095 6.083356e-21)
(2.430026 4.239686 -2.468797e-20)
(0.2695723 -0.09001845 0)
(-0.7031808 -1.175074 0)
(0.3165035 1.993749 -2.566456e-18)
(1.065765 3.332331 0)
(0.8369614 2.580117 -2.791215e-18)
(0.3523665 1.319178 1.137735e-18)
(-0.09122798 -2.400313 -1.043513e-20)
(-0.5508548 -6.662667 9.703801e-21)
(-0.6747604 -7.728443 8.002508e-19)
(-0.5272346 -7.346328 -4.293446e-19)
(-0.2800991 -6.988296 -1.946581e-19)
(-0.04337726 -6.224408 1.393837e-19)
(0.08327371 -5.218239 -2.293545e-19)
(0.131404 -4.018521 5.02668e-21)
(0.07299578 -2.698619 -2.921714e-19)
(-0.03042206 -1.389271 0)
(-0.2488192 -0.1734065 -1.031775e-18)
(-0.5672052 1.041133 -9.789404e-21)
(-0.9095979 2.16734 6.842137e-19)
(-1.189446 2.999255 1.632569e-18)
(-1.331232 3.339351 1.812013e-18)
(-1.373383 3.607439 1.77139e-18)
(-1.06182 3.005509 -1.307597e-20)
(-0.3800259 1.30681 0)
(0.1541154 -0.01989446 0)
(0.5887715 -0.8152288 1.147926e-18)
(1.031002 -1.276363 1.135106e-18)
(1.60022 -1.848687 1.202206e-18)
(2.405259 -2.68046 1.989713e-20)
(2.556391 -2.814807 0)
(1.140422 -1.686854 1.492676e-18)
(-0.8591619 -0.03606606 1.84411e-18)
(-2.566082 1.485614 -2.804649e-18)
(-4.182596 2.738383 0)
(-5.228783 3.630246 5.637799e-18)
(-5.145765 3.779132 0)
(-3.817367 2.9845 -4.373897e-18)
(-1.954837 2.33696 0)
(4.220978 -1.568517 -4.265182e-19)
(4.845456 -2.73145 -2.097199e-18)
(4.053662 -2.030561 0)
(4.277966 -1.700067 0)
(3.902093 -1.585794 2.349134e-21)
(2.402708 -1.33679 -2.727098e-18)
(0.2973885 -0.6941145 4.502559e-18)
(-1.392846 0.5120354 1.292133e-17)
(-3.836624 1.542752 -2.426074e-18)
(4.394987 0.5119164 1.476885e-18)
(13.57026 -0.1477497 -7.247408e-19)
(16.33599 0.3940062 0)
(17.42679 0.9838047 0)
(17.28961 1.387143 -1.621531e-18)
(17.09619 1.908663 -1.763881e-18)
(17.06736 2.555228 -3.544006e-18)
(16.97471 3.21897 3.558406e-18)
(16.82838 3.887692 8.441237e-20)
(16.61676 4.535418 -5.632222e-20)
(16.34057 5.155835 0)
(15.99192 5.739393 0)
(15.58705 6.293526 6.593227e-18)
(15.13788 6.819047 -6.352424e-18)
(14.64112 7.297739 0)
(14.09322 7.728774 0)
(13.50237 8.105165 8.125575e-20)
(12.87399 8.42933 -5.128642e-18)
(12.21662 8.696265 0)
(11.53426 8.902332 -4.087314e-18)
(10.83495 9.059168 -3.634374e-18)
(10.12737 9.160654 -3.121384e-18)
(9.408306 9.192639 2.671946e-18)
(8.678915 9.160176 -3.012818e-20)
(7.95236 9.073716 1.677374e-18)
(7.237235 8.933704 0)
(6.536192 8.731205 -6.708361e-19)
(5.849637 8.466602 1.695641e-21)
(5.181054 8.147942 7.8432e-21)
(4.541182 7.767303 -8.919196e-19)
(3.92515 7.333732 0)
(3.346113 6.849974 -1.848784e-18)
(2.803918 6.322159 -1.939165e-20)
(2.30601 5.753166 2.721776e-18)
(1.853458 5.145764 1.561458e-18)
(1.450245 4.500567 -1.74342e-18)
(1.096926 3.820498 -1.912154e-18)
(0.7979782 3.115421 2.057662e-18)
(0.5499405 2.396616 -2.191431e-18)
(0.3713011 1.653094 -1.118795e-18)
(0.2374938 0.9008173 2.349875e-18)
(0.1654422 0.1699609 1.215677e-18)
(0.1536901 -0.5354131 2.433207e-21)
(0.2269328 -1.282567 5.921558e-19)
(0.3395494 -2.072747 -8.819672e-21)
(0.5157348 -2.855874 0)
(0.7519208 -3.615247 -1.480454e-20)
(1.043257 -4.347888 -1.235893e-20)
(1.390711 -5.051656 -1.580267e-18)
(1.788922 -5.720757 2.854378e-18)
(2.243882 -6.353461 -1.222653e-18)
(2.741697 -6.952424 1.923537e-18)
(3.283537 -7.502397 1.338498e-20)
(3.87072 -8.005688 0)
(4.492818 -8.468475 4.805992e-19)
(5.149539 -8.875912 -5.437863e-21)
(5.841766 -9.230207 5.999889e-19)
(6.55799 -9.538385 0)
(7.291018 -9.782264 1.717637e-18)
(8.039645 -9.956635 0)
(8.800694 -10.07499 -5.355205e-20)
(9.568103 -10.1354 3.370784e-18)
(10.34176 -10.13114 0)
(11.11117 -10.07117 -4.510094e-18)
(11.86879 -9.948269 -5.039173e-18)
(12.60665 -9.759333 -5.535877e-18)
(13.3201 -9.506705 0)
(14.01377 -9.195108 -1.294273e-17)
(14.68068 -8.832195 1.035157e-19)
(15.31322 -8.411654 0)
(15.90375 -7.940311 0)
(16.44875 -7.419007 0)
(16.94848 -6.854118 8.166734e-18)
(17.39521 -6.256189 -8.43361e-18)
(17.78124 -5.620085 0)
(18.10006 -4.948791 0)
(18.35518 -4.249921 4.398411e-18)
(18.55034 -3.527709 3.502579e-20)
(18.67571 -2.790794 0)
(18.72375 -2.049313 0)
(18.7251 -1.324883 -2.132839e-18)
(18.74168 -0.6824932 2.499306e-19)
(19.16446 -0.2587006 0)
(18.28022 0.1484064 8.932516e-19)
(16.00378 0.9102167 1.564768e-20)
(13.83305 1.613703 1.545137e-20)
(9.854361 1.631984 -2.900115e-20)
(1.847579 -0.3859433 2.884449e-18)
(-5.772567 -3.047572 4.687515e-18)
(-5.910114 -2.46879 9.588587e-20)
(-5.105193 -1.371701 7.324004e-20)
(-2.694483 -0.2412181 7.015763e-18)
(-0.2783606 0.4145894 4.425318e-18)
(0.6692293 0.5722808 0)
(0.779701 0.6985381 2.614037e-18)
(1.194527 1.378286 0)
(2.349514 2.462856 -5.658087e-21)
(4.198922 2.92199 -4.160696e-19)
(0.1282588 -1.073628 3.318243e-20)
(-2.588628 -3.070897 -3.432612e-20)
(-3.139931 -3.0737 4.653307e-18)
(-3.008333 -2.830558 -5.211567e-18)
(-2.18892 -2.113659 -5.220149e-18)
(-1.108647 -1.352461 -5.038367e-18)
(-1.365992 -1.894119 -4.062604e-18)
(-1.845802 -2.236734 0)
(-0.8699215 -0.3492074 -1.148686e-20)
(0.4102481 1.801591 0)
(1.564688 3.258023 -2.08137e-18)
(2.741638 4.558625 2.044751e-18)
(1.359541 1.641316 0)
(-0.05541996 0.5063733 0)
(0.2447324 2.485893 4.09924e-18)
(1.060234 3.285113 -1.308854e-18)
(1.035946 2.761846 2.269623e-18)
(0.387595 -0.0114369 -7.387935e-21)
(-0.174977 -5.126684 6.714819e-21)
(-0.4571843 -7.53852 0)
(-0.5141247 -7.381936 -6.590302e-19)
(-0.3982943 -7.337558 6.94589e-19)
(-0.2082871 -6.956323 1.612652e-19)
(-0.1724092 -6.271541 -2.278473e-19)
(-0.05813286 -5.272508 -5.190229e-21)
(-0.01812522 -4.074002 5.260133e-21)
(-0.08928004 -2.74785 -6.848013e-21)
(-0.1763018 -1.426921 7.082064e-21)
(-0.3890181 -0.2240713 4.213989e-19)
(-0.7040913 0.9789532 -8.012118e-21)
(-1.024762 2.111714 -5.624158e-19)
(-1.251973 2.971001 1.921323e-20)
(-1.389964 3.359116 -1.470953e-18)
(-1.31638 3.493689 -1.646106e-20)
(-1.121899 3.357898 0)
(-0.6929475 2.268912 0)
(-0.1523359 0.8244395 -1.085006e-18)
(0.4661708 -0.4334415 -9.510189e-19)
(1.058215 -1.134221 -1.858308e-18)
(1.702353 -1.776016 -9.819811e-19)
(2.438253 -2.629651 0)
(2.304486 -2.69106 0)
(0.7455543 -1.677716 -2.424493e-18)
(-1.019467 -0.2938686 -3.005886e-18)
(-2.482869 1.081865 4.507115e-20)
(-3.982652 2.295311 -1.062637e-19)
(-4.901951 3.29632 -9.30219e-18)
(-4.642533 3.614114 -4.912074e-18)
(-3.09282 2.775215 3.658113e-18)
(-1.34414 2.613316 1.74925e-18)
(3.69417 -0.7331313 3.057951e-19)
(5.970458 -3.132131 8.826534e-19)
(6.734547 -3.021231 0)
(7.535835 -2.836877 -4.576373e-20)
(7.46168 -2.828495 -3.076483e-18)
(6.460669 -2.748886 1.311743e-20)
(4.863248 -2.16473 4.618666e-20)
(2.539113 -0.7376883 -5.220218e-18)
(1.052169 1.125505 -1.863568e-18)
(10.03624 0.849207 3.812891e-21)
(17.04317 0.1157068 -5.413864e-19)
(17.20428 0.3140527 -2.993198e-19)
(17.09742 0.762628 -2.430103e-21)
(16.9526 1.077058 0)
(17.10198 1.528468 -2.236784e-20)
(17.17959 2.111116 1.490882e-18)
(17.14584 2.73425 -5.883357e-18)
(17.02359 3.392224 4.5606e-20)
(16.82568 4.033796 -2.935106e-18)
(16.55009 4.662852 -8.82509e-20)
(16.2074 5.253421 -5.534675e-18)
(15.80535 5.821142 -5.098495e-21)
(15.35812 6.366089 5.241086e-18)
(14.86452 6.861963 -4.910849e-18)
(14.31863 7.313587 0)
(13.72881 7.710542 6.564987e-20)
(13.09911 8.058603 -6.604649e-20)
(12.43917 8.349688 0)
(11.75231 8.580758 3.367755e-18)
(11.04734 8.762504 6.606812e-20)
(10.33295 8.888799 2.609307e-18)
(9.60722 8.944232 -2.138907e-18)
(8.872372 8.932024 -1.725335e-18)
(8.136806 8.867337 -1.355504e-18)
(7.41341 8.747652 -9.00234e-19)
(6.7044 8.563969 4.529613e-21)
(6.008451 8.31769 -4.57455e-21)
(5.330171 8.016836 0)
(4.68132 7.652291 7.250954e-19)
(4.055692 7.234065 -2.071693e-20)
(3.468057 6.764064 1.539576e-18)
(2.917866 6.248753 1.867156e-18)
(2.414571 5.69046 -2.207893e-18)
(1.956454 5.093207 -1.281437e-18)
(1.548604 4.457477 -3.246568e-21)
(1.191116 3.786541 1.568287e-18)
(0.8908386 3.08942 2.698893e-20)
(0.639284 2.378778 1.755351e-18)
(0.4624715 1.640516 1.469076e-20)
(0.3261738 0.8926698 -9.81452e-19)
(0.2512218 0.1677954 -4.952012e-19)
(0.23754 -0.5381399 -6.035526e-23)
(0.3211862 -1.282659 4.700737e-19)
(0.4349473 -2.067463 7.224673e-21)
(0.6123342 -2.844038 -8.620373e-19)
(0.8521368 -3.59638 1.612529e-18)
(1.14744 -4.320476 0)
(1.49921 -5.013873 -4.088046e-21)
(1.901668 -5.671138 -1.174831e-18)
(2.363465 -6.29081 1.029544e-18)
(2.866469 -6.87702 -1.66494e-18)
(3.418294 -7.41124 1.632177e-20)
(4.016923 -7.898262 -1.617227e-20)
(4.645779 -8.346607 -3.950088e-19)
(5.312917 -8.736227 0)
(6.019646 -9.070223 -4.999089e-19)
(6.743463 -9.361689 2.902629e-20)
(7.485588 -9.585852 -6.697132e-20)
(8.24499 -9.73847 -1.780418e-18)
(9.015074 -9.835381 -2.344943e-18)
(9.790998 -9.873048 -1.683592e-20)
(10.57247 -9.844988 3.149398e-18)
(11.35068 -9.758978 -5.293095e-20)
(12.11458 -9.610749 -4.016675e-18)
(12.85815 -9.394726 0)
(13.57837 -9.112586 4.807629e-18)
(14.27559 -8.774748 5.25684e-18)
(14.94222 -8.389247 5.423639e-18)
(15.57392 -7.945 -5.745453e-18)
(16.16206 -7.451711 6.129887e-18)
(16.70437 -6.908645 0)
(17.20114 -6.32287 -1.336763e-17)
(17.64392 -5.709522 1.391982e-17)
(18.025 -5.057534 -1.64536e-19)
(18.33967 -4.374894 -3.559377e-18)
(18.58999 -3.664963 -3.607609e-18)
(18.76691 -2.95132 0)
(18.86139 -2.234213 1.842415e-18)
(18.85635 -1.530976 -1.816434e-18)
(18.75319 -0.8783929 8.857785e-19)
(18.53416 -0.320435 -2.1551e-19)
(18.57577 -0.00996526 -3.95123e-19)
(19.0436 0.3514587 1.158762e-20)
(18.87737 1.24224 -1.56273e-18)
(17.94326 1.994865 2.341403e-20)
(15.39024 1.918955 0)
(5.575385 -0.3940559 0)
(-2.50839 -2.637891 -1.461405e-19)
(-1.93701 -1.279229 1.730534e-19)
(-1.515664 0.2128639 0)
(0.5100062 1.457839 0)
(2.434587 1.91502 0)
(3.301185 1.956486 2.64975e-18)
(3.131858 1.951683 -4.148219e-18)
(2.732263 2.347303 1.103811e-18)
(2.347089 2.567487 -2.462533e-19)
(2.870882 1.5532 -1.702214e-20)
(-0.8053581 -2.439709 1.138429e-18)
(-2.36118 -3.156516 2.539548e-18)
(-3.240038 -3.20669 6.420349e-20)
(-3.328917 -3.046016 3.372752e-21)
(-2.769663 -2.527751 -6.634286e-20)
(-1.715473 -1.940563 -5.806542e-20)
(-1.519283 -2.179826 3.429675e-18)
(-1.987226 -2.280703 0)
(-1.090163 -0.1320165 1.717402e-18)
(0.1327222 1.896832 -1.45207e-18)
(1.351023 3.278852 1.717957e-18)
(2.702817 4.376849 0)
(2.201105 2.923271 0)
(0.7404648 2.286386 -2.741562e-20)
(0.3191337 3.055651 -1.670957e-18)
(1.052196 3.116139 1.107866e-18)
(1.214823 2.513807 -9.220211e-19)
(0.4339224 -2.079485 0)
(-0.06361245 -6.631023 0)
(-0.3678701 -7.357249 0)
(-0.5898135 -7.304421 -5.394511e-19)
(-0.524841 -7.376055 -2.946519e-19)
(-0.3262526 -6.984076 -2.643933e-19)
(-0.2870387 -6.366868 9.302877e-20)
(-0.2020557 -5.385341 0)
(-0.1814679 -4.196438 -2.418405e-19)
(-0.2767945 -2.861356 0)
(-0.34318 -1.515924 -3.482867e-19)
(-0.5488481 -0.3190673 0)
(-0.8632922 0.8735266 0)
(-1.157038 2.012502 -4.564219e-19)
(-1.323257 2.896425 -1.109489e-18)
(-1.412733 3.351428 1.229286e-18)
(-1.283462 3.45466 -1.212819e-18)
(-1.056786 3.388126 1.108612e-18)
(-0.7630208 2.739812 0)
(-0.3139766 1.508263 1.742963e-18)
(0.3800478 0.02342668 7.685669e-19)
(1.124662 -0.9838839 7.835654e-19)
(1.715214 -1.559549 -2.41117e-20)
(2.240039 -2.304838 -2.980058e-20)
(1.92122 -2.435774 -9.737159e-19)
(0.3796862 -1.700225 1.990543e-18)
(-1.041207 -0.6799013 1.236104e-18)
(-2.273391 0.5386635 7.465723e-20)
(-3.679581 1.723712 2.757133e-18)
(-4.492319 2.889742 3.896795e-18)
(-4.037703 3.439821 4.051716e-18)
(-2.343143 2.587156 0)
(-0.2761561 2.626813 8.810051e-20)
(3.619652 0.01632046 0)
(7.320186 -3.367918 6.574368e-19)
(9.056144 -3.705925 1.560935e-18)
(10.22052 -3.705843 2.153271e-18)
(10.47285 -3.858213 -8.506384e-20)
(10.22703 -3.993591 4.30889e-20)
(9.702792 -3.526976 -5.139361e-18)
(8.463273 -1.710607 0)
(8.747617 0.7146571 -1.320211e-18)
(14.95718 1.175 -8.339354e-19)
(17.45649 0.3824616 8.78279e-19)
(16.46427 0.3555836 2.388975e-19)
(16.66041 0.8808315 0)
(16.70774 1.328417 5.488271e-19)
(16.84931 1.872869 0)
(16.89528 2.488605 0)
(16.84905 3.118578 2.456485e-18)
(16.7245 3.765634 -3.748877e-20)
(16.52842 4.38925 4.313267e-20)
(16.25691 4.994849 -2.313877e-18)
(15.92011 5.555506 4.647474e-18)
(15.52423 6.092887 -4.422152e-18)
(15.08646 6.607915 -4.24656e-18)
(14.60832 7.064177 1.986996e-19)
(14.07597 7.483048 -1.224275e-19)
(13.50332 7.845117 -1.065223e-19)
(12.89018 8.16364 -3.045719e-18)
(12.24886 8.427471 -3.066281e-18)
(11.58123 8.631779 -7.904767e-20)
(10.89337 8.792818 2.492151e-18)
(10.20066 8.898066 0)
(9.497999 8.932887 1.761152e-18)
(8.780691 8.906626 1.420216e-18)
(8.063607 8.829849 1.031565e-18)
(7.36106 8.699358 7.406666e-19)
(6.671798 8.507475 0)
(5.995583 8.253538 0)
(5.333726 7.949964 -3.105877e-19)
(4.703814 7.582091 0)
(4.091748 7.164793 0)
(3.519243 6.696595 1.324264e-18)
(2.984716 6.184004 -3.086988e-20)
(2.490213 5.631907 -1.102136e-20)
(2.039128 5.040767 -3.471322e-20)
(1.638857 4.411353 2.3897e-18)
(1.289775 3.74685 0)
(0.9993995 3.056316 0)
(0.7441358 2.35783 1.484112e-18)
(0.5731546 1.62678 7.386304e-19)
(0.4332893 0.8829289 7.908468e-19)
(0.3542712 0.1644164 -4.051704e-19)
(0.3390008 -0.5429475 0)
(0.4379947 -1.282055 -2.566964e-22)
(0.5541555 -2.060684 2.288471e-20)
(0.7220759 -2.831328 6.83733e-19)
(0.9542964 -3.574507 -1.321716e-18)
(1.243606 -4.286751 -3.654468e-20)
(1.588986 -4.968115 1.104345e-18)
(1.984022 -5.614282 3.219704e-20)
(2.438267 -6.224774 1.668443e-18)
(2.925658 -6.806081 -1.570626e-20)
(3.462301 -7.335953 -1.076722e-18)
(4.050159 -7.820209 2.720919e-20)
(4.662583 -8.269874 0)
(5.307622 -8.663091 2.471289e-20)
(5.998865 -9.000436 0)
(6.707112 -9.297947 0)
(7.426036 -9.532834 -1.12275e-18)
(8.165071 -9.695892 2.934261e-18)
(8.917403 -9.804482 6.324385e-20)
(9.671906 -9.857869 -1.194958e-19)
(10.43281 -9.846843 -2.587631e-18)
(11.18977 -9.782387 -2.891704e-18)
(11.9329 -9.657291 3.418327e-18)
(12.65458 -9.468556 -3.678431e-18)
(13.35256 -9.216881 -7.659466e-20)
(14.03237 -8.906993 0)
(14.68126 -8.554163 -4.69512e-18)
(15.29745 -8.142272 9.845284e-18)
(15.87101 -7.685102 -5.215606e-18)
(16.39963 -7.179272 0)
(16.88676 -6.629565 9.400423e-20)
(17.32135 -6.051064 -5.577937e-18)
(17.69611 -5.431037 -8.893548e-20)
(18.00737 -4.776759 1.417328e-19)
(18.25427 -4.092463 -9.235511e-20)
(18.43335 -3.391718 0)
(18.53105 -2.690343 -2.937362e-18)
(18.53885 -1.981116 1.413797e-18)
(18.45607 -1.295057 6.973087e-19)
(18.29561 -0.6627776 -1.086849e-20)
(18.1363 -0.1867952 3.230329e-19)
(18.35399 0.3102177 6.168496e-19)
(18.47409 1.217612 0)
(17.99953 1.907162 1.180475e-18)
(17.81992 1.695689 -5.362909e-20)
(10.92982 -0.3403685 1.716899e-18)
(2.586499 -1.775352 0)
(1.735387 0.03916861 0)
(2.769427 2.143501 0)
(4.16533 3.348619 5.577635e-20)
(5.427009 3.500258 2.681015e-18)
(5.974294 3.302806 -2.176466e-18)
(5.515165 3.153768 1.720536e-18)
(4.460714 3.245918 -1.752365e-18)
(2.671552 2.610133 2.13429e-19)
(1.766109 0.1727732 0)
(-0.8903123 -3.04947 -9.376811e-19)
(-2.096456 -3.162611 -2.069244e-18)
(-3.218143 -3.312536 3.334668e-18)
(-3.57089 -3.251505 -1.043024e-19)
(-3.325906 -3.000034 -1.018316e-19)
(-2.464677 -2.755805 1.070539e-19)
(-1.912285 -2.710281 0)
(-2.045377 -2.073158 -2.106527e-18)
(-1.335545 0.1622987 4.076875e-20)
(-0.1647822 2.043543 2.340836e-18)
(1.139681 3.294474 -1.447331e-18)
(2.489894 4.030486 8.853458e-20)
(2.610622 3.499999 -1.338535e-18)
(1.125822 3.141825 0)
(0.3093591 3.193508 -1.390477e-18)
(1.03933 2.76941 9.458224e-19)
(1.353045 1.462335 -4.558994e-20)
(0.5961611 -4.19719 5.911692e-19)
(0.1374551 -7.202263 -2.810695e-20)
(-0.2877561 -7.138444 1.103281e-20)
(-0.5343245 -7.442959 4.528963e-19)
(-0.4997528 -7.434896 -3.537169e-21)
(-0.3942711 -7.068605 3.81442e-21)
(-0.4212633 -6.475949 4.297694e-21)
(-0.3694737 -5.522007 1.198394e-19)
(-0.3710813 -4.366494 1.969718e-19)
(-0.48345 -3.032807 -1.579758e-19)
(-0.5376629 -1.656859 2.834435e-19)
(-0.7368356 -0.4568135 0)
(-1.052177 0.7324144 2.980802e-19)
(-1.310935 1.869874 3.949056e-19)
(-1.400684 2.764121 9.103634e-19)
(-1.429978 3.263293 0)
(-1.261182 3.432481 0)
(-0.9728229 3.353821 -9.165195e-19)
(-0.6794806 2.896483 -2.356711e-20)
(-0.2936299 1.940396 -6.809731e-19)
(0.3757224 0.4802113 -6.224027e-19)
(1.236135 -0.816442 -6.213145e-19)
(1.656793 -1.274639 6.650244e-19)
(1.865854 -1.804793 -7.265393e-19)
(1.441181 -2.067899 7.781833e-19)
(0.06523185 -1.746006 -7.952653e-19)
(-0.954836 -1.156833 0)
(-2.02835 -0.08337657 0)
(-3.37123 1.073248 -2.328811e-18)
(-4.10012 2.465386 0)
(-3.39231 3.327134 -9.463112e-20)
(-1.539673 2.447983 3.03748e-20)
(0.8813213 2.611613 -1.172668e-18)
(4.058833 0.6626741 -2.3886e-20)
(8.512329 -3.287951 -3.193066e-21)
(10.55842 -3.976704 -1.249292e-18)
(11.88824 -4.14536 -1.507519e-20)
(12.50706 -4.432022 9.787622e-19)
(13.13138 -4.787965 -5.156494e-20)
(14.12203 -4.535755 2.114006e-18)
(14.80571 -2.634238 -7.703823e-20)
(15.36443 0.3035104 4.109372e-18)
(17.30126 1.24179 2.610027e-20)
(16.69657 0.4328594 3.329996e-21)
(16.24216 0.3163691 -4.114307e-19)
(16.64084 0.7901325 -3.323392e-21)
(16.72822 1.148156 -4.541706e-19)
(16.87721 1.62719 -2.96226e-20)
(16.92872 2.190343 -9.238209e-19)
(16.88399 2.783485 1.917055e-18)
(16.75615 3.42348 -1.915966e-18)
(16.5635 4.034206 3.705929e-18)
(16.29365 4.655028 2.025293e-18)
(15.95875 5.230713 0)
(15.56115 5.786888 0)
(15.12346 6.323304 3.443383e-18)
(14.64586 6.798352 3.276439e-18)
(14.11349 7.234918 0)
(13.54343 7.608292 -8.552508e-20)
(12.93033 7.940443 2.762059e-18)
(12.28639 8.222636 2.442857e-18)
(11.61989 8.437905 2.12307e-18)
(10.93809 8.60378 -5.54611e-20)
(10.24763 8.720528 -1.571373e-18)
(9.542507 8.770586 3.863855e-20)
(8.829945 8.749664 -3.900128e-20)
(8.121357 8.675959 -8.693697e-19)
(7.42202 8.554165 5.579171e-19)
(6.729273 8.37683 0)
(6.061285 8.1266 0)
(5.402254 7.832449 5.241452e-19)
(4.781436 7.469844 -8.180147e-21)
(4.173853 7.060621 -7.815452e-21)
(3.616972 6.596109 -1.021165e-18)
(3.091407 6.089885 -2.550657e-18)
(2.590812 5.554223 1.421841e-18)
(2.142846 4.975085 -1.692459e-18)
(1.747178 4.356397 -9.345785e-19)
(1.406268 3.700833 -3.182163e-20)
(1.123991 3.014998 0)
(0.8634349 2.331638 -1.158462e-18)
(0.7073884 1.612066 -3.898967e-20)
(0.5620455 0.8719765 -6.573618e-19)
(0.4793722 0.1597091 3.47072e-19)
(0.4645335 -0.5495349 -3.602761e-23)
(0.5793263 -1.280315 -3.345204e-19)
(0.6890211 -2.055242 2.839327e-20)
(0.8507667 -2.816145 -5.963874e-19)
(1.07335 -3.540882 1.084133e-18)
(1.356018 -4.235197 -1.034359e-18)
(1.696827 -4.902387 2.827503e-21)
(2.087988 -5.536029 8.298165e-19)
(2.546676 -6.134402 -1.329122e-18)
(3.025113 -6.709707 1.108208e-18)
(3.550849 -7.233823 8.070056e-19)
(4.139543 -7.709458 8.406987e-21)
(4.759755 -8.146972 8.809535e-21)
(5.397643 -8.5332 -1.476269e-20)
(6.072734 -8.871636 -2.377484e-19)
(6.781123 -9.160898 2.239764e-20)
(7.499395 -9.385534 8.216122e-19)
(8.230854 -9.542294 -2.364282e-18)
(8.97566 -9.647032 1.47052e-18)
(9.735402 -9.682815 -5.771579e-20)
(10.49387 -9.661749 -2.085538e-18)
(11.24363 -9.592921 4.761845e-18)
(11.98725 -9.454081 8.665227e-20)
(12.70632 -9.254403 2.852836e-18)
(13.40502 -8.985914 -3.304154e-18)
(14.08695 -8.658749 1.02219e-19)
(14.73481 -8.292405 -3.711494e-18)
(15.3515 -7.861596 -3.77861e-18)
(15.9242 -7.387987 1.293884e-19)
(16.45409 -6.858502 -4.311665e-18)
(16.94146 -6.286761 4.437516e-18)
(17.37556 -5.688972 0)
(17.74815 -5.051869 0)
(18.05526 -4.381584 2.385186e-18)
(18.29821 -3.695862 2.375405e-18)
(18.47648 -3.004517 0)
(18.57526 -2.31237 1.257192e-18)
(18.58197 -1.631012 1.141735e-18)
(18.49229 -0.9993001 -5.845283e-19)
(18.33035 -0.4400528 1.337225e-19)