/*--------------------------------*- C++ -*----------------------------------*\
| =========                 |                                                 |
| \\      /  F ield         | OpenFOAM: The Open Source CFD Toolbox           |
|  \\    /   O peration     | Version:  2406                                  |
|   \\  /    A nd           | Website:  www.openfoam.com                      |
|    \\/     M anipulation  |                                                 |
\*---------------------------------------------------------------------------*/
FoamFile
{
    version     2.0;
    format      ascii;
    arch        "LSB;label=32;scalar=64";
    class       volScalarField;
    location    "0.42";
    object      p;
}
// * * * * * * * * * * * * * * * * * * * * * * * * * * * * * * * * * * * * * //

dimensions      [0 2 -2 0 0 0 0];

internalField   nonuniform List<scalar> 
4531
(
-0.0004839112
-4.350105e-05
-0.0001278546
-9.673467e-05
-7.0169e-05
-8.924626e-05
-5.336586e-05
-6.683845e-05
-6.377177e-05
-4.915531e-05
-6.217608e-05
-4.947596e-05
-5.719789e-05
-3.036886e-05
-3.92796e-05
-3.174827e-05
-3.257392e-05
-3.034188e-05
-1.758696e-05
-3.074667e-05
-5.760378e-06
-1.469178e-05
4.473922e-05
-0.0001219753
0.0005814571
-0.0009825034
-0.0002036481
-0.0003207123
-0.0002598034
-0.0002425718
-0.0002271712
-0.0002167404
-0.0002060774
-0.0001937377
-0.0001911469
-0.0001838955
-0.0001794709
-0.0001746893
-0.0001720444
-0.000168259
-0.0001657114
-0.0001635916
-0.0001616147
-0.0001602122
-0.0001588942
-0.0001574522
-0.0001570029
-0.0001558614
-0.0001556244
-0.0001553742
-0.0001555632
-0.0001558698
-0.0001565747
-0.0001573432
-0.0001586696
-0.0001597165
-0.0001619552
-0.0001635458
-0.0001654814
-0.0001690043
-0.0001710346
-0.0001751529
-0.0001794423
-0.000185578
-0.0001903827
-0.0001985688
-0.0002045018
-0.0002192719
-0.000224865
-0.0002484045
-0.0002513343
-0.0003360521
-0.0001839479
-0.000995276
0.0005815984
-0.0001228258
5.331933e-05
-1.525453e-05
-5.178173e-07
-2.689204e-05
-1.620157e-05
-3.311956e-05
-2.491936e-05
-4.222901e-05
-4.312916e-05
-3.969462e-05
-5.52778e-05
-4.03344e-05
-5.668983e-05
-5.203631e-05
-7.102127e-05
-5.818507e-05
-7.215206e-05
-6.124175e-05
-8.77721e-05
-9.43842e-05
-0.0001487369
-1.293138e-05
-0.000477577
0.0005529642
0.0001311604
0.000207797
0.0001659428
0.0001671845
0.0001573336
0.0001482468
0.0001547288
0.0001456568
0.0001337631
0.0001540584
0.0001484704
0.0001446195
0.0001314065
0.0001479466
0.0001508978
0.0001454808
0.0001450372
0.0001462441
0.0001509495
0.0001427978
0.0001555473
0.0001472719
0.0001604507
0.0001586034
0.0001632593
0.0001671223
0.0001719324
0.0001730527
0.0001866043
0.0001909334
0.0002044086
0.0002223924
0.0002284304
0.0003314573
0.0003398211
0.0002288296
0.0002248237
0.0002063155
0.0001929417
0.0001885944
0.0001755247
0.0001740232
0.0001694454
0.0001655242
0.0001608654
0.0001626347
0.0001491497
0.0001575527
0.0001444489
0.0001518875
0.0001477314
0.0001446617
0.0001452972
0.0001502569
0.0001473869
0.0001309401
0.0001442266
0.0001479786
0.0001532791
0.0001328241
0.000144445
0.0001533808
0.0001465243
0.0001582904
0.0001664599
0.0001708205
0.0002311134
9.729111e-05
0.0005790682
0.0003430865
0.0002332486
0.0002257822
0.0002075412
0.0001935049
0.0001890224
0.0001761681
0.0001741835
0.0001696255
0.0001656895
0.0001606922
0.0001627202
0.000149342
0.0001574746
0.0001446817
0.0001515207
0.0001477868
0.0001447402
0.0001451207
0.0001500324
0.0001472372
0.0001310055
0.0001442138
0.0001474698
0.0001526592
0.0001329181
0.0001440978
0.0001528118
0.0001464253
0.0001578661
0.0001658371
0.0001702331
0.0002286695
9.849698e-05
0.0005535124
0.0005275062
0.000131434
0.0002061802
0.000165118
0.0001666842
0.0001567941
0.0001480799
0.0001541232
0.000145296
0.0001338481
0.000153435
0.000147964
0.0001446096
0.0001314688
0.0001477821
0.000150648
0.000145276
0.0001450767
0.000146308
0.0001505993
0.0001430391
0.0001554898
0.0001474722
0.0001605459
0.0001584457
0.0001634361
0.0001673155
0.0001720966
0.0001737165
0.0001870484
0.0001915009
0.0002056292
0.0002234072
0.0002325971
0.0003351922
0.0005352694
-0.0001020511
4.929393e-05
-1.42306e-05
-8.778634e-07
-2.666266e-05
-1.624702e-05
-3.299705e-05
-2.511067e-05
-4.194687e-05
-4.308132e-05
-3.941947e-05
-5.506163e-05
-4.028829e-05
-5.647397e-05
-5.187318e-05
-7.052943e-05
-5.778953e-05
-7.173681e-05
-6.124824e-05
-8.729929e-05
-9.300071e-05
-0.0001468497
-1.358003e-05
-0.0004533188
-0.0009386083
-0.0002297181
-0.0003189178
-0.0002619197
-0.0002433318
-0.0002276862
-0.0002170756
-0.0002064788
-0.0001940601
-0.0001912549
-0.000184042
-0.0001795898
-0.0001747702
-0.0001720875
-0.0001683159
-0.0001657497
-0.0001636191
-0.0001616308
-0.0001602137
-0.0001588987
-0.0001574591
-0.0001569994
-0.0001558665
-0.0001556301
-0.0001553807
-0.0001555705
-0.0001558769
-0.0001565815
-0.0001573534
-0.0001586792
-0.000159738
-0.0001619655
-0.0001635647
-0.0001655239
-0.0001690365
-0.0001711123
-0.0001752704
-0.0001795911
-0.0001857174
-0.0001905755
-0.0001987863
-0.0002048847
-0.0002195822
-0.0002255171
-0.0002489032
-0.0002539102
-0.0003335162
-0.0002104833
-0.0009524312
-0.000458704
-4.358718e-05
-0.0001263156
-9.593118e-05
-6.979839e-05
-8.845896e-05
-5.325217e-05
-6.641569e-05
-6.325753e-05
-4.915581e-05
-6.198887e-05
-4.920837e-05
-5.693007e-05
-3.033487e-05
-3.93809e-05
-3.156245e-05
-3.246874e-05
-3.029107e-05
-1.799156e-05
-3.051089e-05
-5.819893e-06
-1.385069e-05
4.095688e-05
-0.0001007954
0.0005355876
-0.0004279653
-4.285933e-05
-0.000123751
-9.492203e-05
-6.909609e-05
-8.747055e-05
-5.298208e-05
-6.583674e-05
-6.26062e-05
-4.910791e-05
-6.175749e-05
-4.883386e-05
-5.664388e-05
-3.024364e-05
-3.952588e-05
-3.132058e-05
-3.234965e-05
-3.027682e-05
-1.848155e-05
-3.031655e-05
-5.936265e-06
-1.305283e-05
3.713769e-05
-7.926177e-05
0.0004824667
-0.0008853172
-0.0002569366
-0.0003175519
-0.0002643127
-0.0002442216
-0.0002282706
-0.0002174497
-0.0002069431
-0.0001944271
-0.0001913833
-0.0001842073
-0.0001797263
-0.00017486
-0.0001721343
-0.0001683789
-0.0001657918
-0.0001636501
-0.0001616467
-0.0001602125
-0.0001589016
-0.0001574644
-0.0001569941
-0.0001558704
-0.0001556361
-0.0001553878
-0.0001555787
-0.0001558846
-0.0001565887
-0.0001573644
-0.0001586892
-0.0001597608
-0.0001619755
-0.0001635839
-0.0001655693
-0.0001690735
-0.0001712012
-0.0001754081
-0.0001797637
-0.0001858782
-0.0001907944
-0.0001990362
-0.0002053169
-0.0002199434
-0.0002262495
-0.0002495131
-0.0002567933
-0.0003313605
-0.0002382402
-0.000900315
0.0004816841
-8.103267e-05
4.517712e-05
-1.323594e-05
-1.358968e-06
-2.648727e-05
-1.630549e-05
-3.290416e-05
-2.532201e-05
-4.164712e-05
-4.303039e-05
-3.90663e-05
-5.478785e-05
-4.01736e-05
-5.621602e-05
-5.160484e-05
-6.991543e-05
-5.723727e-05
-7.115167e-05
-6.114321e-05
-8.646868e-05
-9.143298e-05
-0.0001439318
-1.350634e-05
-0.0004235332
0.0004962985
0.0001308804
0.0002037829
0.0001638235
0.0001660581
0.0001559916
0.000147777
0.0001533468
0.0001447888
0.0001338645
0.0001526385
0.0001473132
0.0001445779
0.0001314774
0.0001475664
0.0001503445
0.0001450059
0.0001451083
0.0001463767
0.0001501738
0.0001433018
0.0001554311
0.0001476937
0.0001606583
0.0001582431
0.0001636524
0.0001675477
0.00017233
0.0001745196
0.0001876066
0.0001922229
0.0002071251
0.0002246625
0.0002377773
0.0003370555
0.0003443953
0.000238688
0.0002269804
0.0002090398
0.0001942208
0.0001895601
0.0001769456
0.0001744098
0.0001698409
0.0001658905
0.0001604689
0.0001628186
0.0001495515
0.0001573893
0.0001449307
0.0001510707
0.0001478461
0.0001448193
0.0001448888
0.0001497623
0.0001470415
0.0001310189
0.000144179
0.0001468165
0.0001518673
0.000132947
0.0001436096
0.0001520833
0.0001462102
0.000157186
0.0001651238
0.0001690898
0.0002253763
9.896807e-05
0.0005222294
0.0003423374
0.0002447136
0.0002282735
0.0002106811
0.0001950612
0.000190162
0.0001778206
0.0001747104
0.00017009
0.0001661104
0.00016023
0.0001628879
0.0001497948
0.0001573003
0.0001451686
0.0001505715
0.0001479231
0.0001448784
0.0001446096
0.0001494998
0.0001468186
0.0001309409
0.0001440932
0.0001461362
0.0001510116
0.0001328657
0.0001429961
0.0001512566
0.0001459081
0.0001562874
0.0001643355
0.000167697
0.0002207951
0.0001002649
0.0004866542
0.0004610307
0.000131217
0.00020011
0.0001623053
0.000165266
0.000155022
0.0001473749
0.0001524716
0.0001441521
0.0001337687
0.0001517768
0.0001466344
0.0001444939
0.000131393
0.0001473216
0.0001500443
0.0001446852
0.000145117
0.0001464611
0.0001497023
0.0001435564
0.0001553705
0.0001479519
0.0001607444
0.0001580279
0.0001638897
0.0001678163
0.0001726401
0.0001754233
0.0001882311
0.0001930721
0.0002087634
0.0002260174
0.0002435532
0.0003356227
0.000423159
-6.082154e-05
4.051278e-05
-1.204479e-05
-2.025564e-06
-2.636646e-05
-1.639495e-05
-3.279978e-05
-2.555875e-05
-4.136477e-05
-4.297344e-05
-3.863422e-05
-5.452639e-05
-4.001224e-05
-5.586058e-05
-5.13249e-05
-6.922714e-05
-5.656134e-05
-7.045687e-05
-6.091546e-05
-8.522759e-05
-9.013304e-05
-0.0001393552
-1.427338e-05
-0.0003895809
-0.0008237461
-0.0002837707
-0.0003159891
-0.0002670055
-0.0002451706
-0.0002288967
-0.0002178628
-0.0002074448
-0.0001948082
-0.0001915229
-0.0001843907
-0.0001798692
-0.0001749549
-0.0001721834
-0.0001684444
-0.0001658329
-0.0001636822
-0.0001616604
-0.0001602088
-0.0001589017
-0.0001574669
-0.0001569863
-0.0001558715
-0.0001556389
-0.000155393
-0.0001555847
-0.0001558905
-0.0001565938
-0.0001573742
-0.0001586972
-0.000159782
-0.000161985
-0.0001636013
-0.0001656135
-0.0001691132
-0.0001712954
-0.0001755534
-0.0001799514
-0.0001860519
-0.0001910328
-0.0001992992
-0.0002057843
-0.0002203299
-0.0002270407
-0.0002501481
-0.0002600003
-0.0003289532
-0.0002656634
-0.0008399111
-0.0003931149
-4.299665e-05
-0.0001198125
-9.396489e-05
-6.815083e-05
-8.632633e-05
-5.256793e-05
-6.518351e-05
-6.185496e-05
-4.897375e-05
-6.150005e-05
-4.849444e-05
-5.633582e-05
-3.011006e-05
-3.96289e-05
-3.104196e-05
-3.225318e-05
-3.030142e-05
-1.907264e-05
-3.015805e-05
-6.19238e-06
-1.204873e-05
3.284543e-05
-5.83837e-05
0.0004241992
-0.0003532803
-4.420571e-05
-0.0001142255
-9.318409e-05
-6.730576e-05
-8.474287e-05
-5.203428e-05
-6.466279e-05
-6.071835e-05
-4.858741e-05
-6.128569e-05
-4.849648e-05
-5.581695e-05
-3.011735e-05
-3.943794e-05
-3.062129e-05
-3.221755e-05
-3.049402e-05
-2.005014e-05
-2.987319e-05
-6.776352e-06
-1.051362e-05
2.80754e-05
-3.852263e-05
0.0003594644
-0.0007520287
-0.0003094815
-0.0003144003
-0.0002701085
-0.0002462383
-0.0002295963
-0.0002183854
-0.0002079792
-0.0001952283
-0.0001916594
-0.0001846002
-0.0001800255
-0.0001750614
-0.0001722398
-0.0001685175
-0.0001658734
-0.0001637163
-0.0001616728
-0.0001602033
-0.0001588987
-0.0001574687
-0.0001569743
-0.0001558682
-0.0001556369
-0.0001553947
-0.0001555881
-0.0001558928
-0.000156595
-0.0001573799
-0.0001587047
-0.000159804
-0.0001619955
-0.0001636178
-0.000165655
-0.0001691528
-0.0001714083
-0.000175717
-0.0001801676
-0.0001862479
-0.0001913071
-0.0001995867
-0.0002063023
-0.0002207251
-0.0002279412
-0.0002508042
-0.0002636281
-0.0003262643
-0.0002920146
-0.0007695327
0.0003589857
-4.225591e-05
3.507264e-05
-1.030583e-05
-3.159941e-06
-2.629107e-05
-1.647631e-05
-3.237938e-05
-2.612902e-05
-4.104037e-05
-4.277564e-05
-3.785553e-05
-5.450576e-05
-3.984077e-05
-5.504912e-05
-5.13978e-05
-6.837987e-05
-5.549728e-05
-6.995822e-05
-6.067926e-05
-8.359939e-05
-8.917212e-05
-0.0001328177
-1.636264e-05
-0.0003507399
0.0004212165
0.0001330945
0.0001947929
0.0001605384
0.0001642256
0.0001539568
0.0001470892
0.0001513318
0.0001433053
0.0001335355
0.0001509574
0.0001459686
0.0001443589
0.0001311915
0.000147047
0.0001497494
0.00014426
0.0001451051
0.0001465558
0.0001491358
0.000143844
0.0001553825
0.0001484271
0.0001606528
0.0001577331
0.0001641438
0.0001681688
0.0001731423
0.0001765696
0.0001888031
0.0001940393
0.0002104724
0.000227705
0.0002496805
0.0003302088
0.00033621
0.0002510757
0.0002298926
0.0002123936
0.0001960166
0.0001907093
0.000178934
0.0001752005
0.0001704192
0.0001663454
0.0001599087
0.0001627767
0.0001502521
0.0001572837
0.0001454386
0.0001499832
0.0001480148
0.0001449139
0.0001442236
0.0001492454
0.0001465661
0.0001307471
0.0001439578
0.0001454705
0.0001502004
0.0001326503
0.0001421788
0.0001501581
0.0001457377
0.0001552709
0.0001632445
0.0001661978
0.0002144448
0.0001029693
0.0004459123
0.0003257332
0.0002569399
0.0002322042
0.0002140922
0.0001970743
0.00019098
0.0001803187
0.000176022
0.0001709186
0.000166607
0.0001594231
0.0001623326
0.000151106
0.00015753
0.000145889
0.0001492549
0.0001480023
0.0001448969
0.0001436592
0.0001491297
0.0001463186
0.0001302806
0.0001437991
0.0001449911
0.0001495879
0.0001321688
0.0001410585
0.000148658
0.0001459409
0.0001542095
0.0001616943
0.0001647829
0.0002063396
0.0001070364
0.0004000056
0.0003758403
0.0001365707
0.000187679
0.000158391
0.0001629254
0.0001528855
0.0001471492
0.0001498129
0.0001421485
0.0001330313
0.0001503338
0.0001454864
0.0001441986
0.0001307166
0.0001467809
0.0001495912
0.00014367
0.0001450486
0.0001465408
0.0001484137
0.0001443102
0.0001556532
0.0001492982
0.0001602291
0.0001572749
0.0001644261
0.000168696
0.0001739793
0.0001779889
0.0001891015
0.0001951124
0.0002121684
0.000230093
0.0002553432
0.0003205322
0.0002887626
-2.723008e-05
2.888883e-05
-7.670749e-06
-4.984305e-06
-2.624928e-05
-1.652549e-05
-3.101411e-05
-2.748269e-05
-4.051223e-05
-4.229199e-05
-3.63899e-05
-5.4859e-05
-3.967069e-05
-5.325458e-05
-5.233776e-05
-6.730591e-05
-5.378912e-05
-7.000953e-05
-6.058766e-05
-8.163999e-05
-8.878186e-05
-0.0001241811
-1.972975e-05
-0.0003069443
-0.0006672496
-0.0003317214
-0.0003132572
-0.0002736515
-0.0002475087
-0.0002304172
-0.0002191076
-0.0002085303
-0.0001957523
-0.0001917715
-0.0001848375
-0.0001802059
-0.0001751874
-0.000172311
-0.0001686033
-0.0001659124
-0.0001637545
-0.0001616836
-0.0001601949
-0.0001588935
-0.0001574719
-0.0001569538
-0.0001558559
-0.0001556264
-0.00015539
-0.0001555887
-0.0001558871
-0.000156587
-0.0001573745
-0.0001587149
-0.0001598305
-0.000162011
-0.0001636336
-0.0001656917
-0.0001691889
-0.0001715655
-0.0001759198
-0.000180436
-0.0001864834
-0.0001916372
-0.0001999191
-0.0002068868
-0.0002211204
-0.0002290459
-0.0002514838
-0.0002677588
-0.00032359
-0.0003145914
-0.0006863733
-0.0003078233
-4.602076e-05
-0.0001067011
-9.26769e-05
-6.688519e-05
-8.242034e-05
-5.141084e-05
-6.433965e-05
-5.888196e-05
-4.777804e-05
-6.122049e-05
-4.911114e-05
-5.484806e-05
-3.044681e-05
-3.865504e-05
-2.988901e-05
-3.229504e-05
-3.102735e-05
-2.164794e-05
-2.921594e-05
-7.799859e-06
-8.299453e-06
2.293148e-05
-2.119138e-05
0.0002876586
-0.0002541911
-5.044886e-05
-9.621352e-05
-9.121798e-05
-6.388999e-05
-8.111434e-05
-5.012649e-05
-6.202754e-05
-5.825736e-05
-4.743363e-05
-6.089831e-05
-4.831311e-05
-5.463471e-05
-2.949808e-05
-3.878596e-05
-2.935655e-05
-3.237056e-05
-3.114937e-05
-2.186378e-05
-2.948836e-05
-7.578356e-06
-8.302394e-06
1.55796e-05
-9.339185e-06
0.0002053508
-0.0005596268
-0.0003467235
-0.0003110286
-0.0002763074
-0.0002489505
-0.0002311945
-0.0002197084
-0.0002092725
-0.0001963202
-0.0001919531
-0.0001851078
-0.0001803895
-0.0001753024
-0.0001723778
-0.0001686745
-0.0001659312
-0.0001637916
-0.0001616735
-0.0001601669
-0.000158879
-0.0001574458
-0.0001569191
-0.0001558196
-0.0001555952
-0.000155372
-0.0001555761
-0.0001558665
-0.0001565584
-0.0001573582
-0.0001587047
-0.0001598395
-0.0001620265
-0.0001636292
-0.0001657285
-0.0001692547
-0.0001717085
-0.0001761306
-0.0001807426
-0.0001867603
-0.0001919807
-0.0002002716
-0.0002075592
-0.0002217588
-0.0002301895
-0.0002524427
-0.000271533
-0.0003208503
-0.0003282953
-0.0005794848
0.0002039741
-1.543953e-05
2.21444e-05
-6.727088e-06
-5.318086e-06
-2.658335e-05
-1.696062e-05
-2.995748e-05
-2.769554e-05
-4.002242e-05
-4.246564e-05
-3.589578e-05
-5.363901e-05
-3.904442e-05
-5.229216e-05
-5.19537e-05
-6.66176e-05
-5.323387e-05
-6.813474e-05
-5.943662e-05
-7.898519e-05
-8.881122e-05
-0.0001149643
-2.303706e-05
-0.0002567813
0.0003187711
0.000140272
0.00017858
0.0001558177
0.0001611204
0.0001513216
0.0001456257
0.0001492506
0.0001409016
0.0001315981
0.0001492725
0.0001455516
0.0001438062
0.0001293383
0.0001466366
0.0001501343
0.0001431916
0.0001447263
0.0001461503
0.000147803
0.0001448355
0.0001560408
0.0001492957
0.0001605334
0.0001571376
0.0001648199
0.0001693448
0.0001746064
0.0001784257
0.000190004
0.0001965607
0.0002142367
0.0002327337
0.0002582115
0.0003092802
0.0003135988
0.0002599378
0.0002347473
0.0002161519
0.0001984981
0.0001918362
0.0001807366
0.0001766277
0.000171536
0.0001669794
0.0001592627
0.0001626175
0.000151089
0.0001579025
0.0001463806
0.0001485886
0.0001476102
0.0001446517
0.0001432116
0.0001497351
0.0001461957
0.0001289148
0.0001434158
0.0001450642
0.0001485352
0.0001307576
0.0001398392
0.0001480994
0.0001446117
0.0001525046
0.0001595264
0.0001636994
0.000197456
0.0001108719
0.0003493617
0.0003091976
0.0002554874
0.0002337844
0.0002202682
0.0002008859
0.0001988777
0.0001761105
0.0001743268
0.0001714308
0.000167541
0.0001616206
0.000168325
0.000144447
0.0001564313
0.0001445697
0.0001493125
0.0001470391
0.0001437996
0.0001443842
0.0001516664
0.0001461888
0.0001258073
0.0001416262
0.0001454089
0.0001437046
0.0001269972
0.0001396481
0.0001537187
0.0001329591
0.0001476788
0.0001562387
0.0001617618
0.0001883502
0.0001086754
0.0002927036
0.0002391048
0.0001392958
0.0001664752
0.0001528549
0.0001572718
0.000146899
0.0001338011
0.0001547274
0.0001407449
0.0001278414
0.0001444528
0.000145882
0.0001419825
0.0001261911
0.0001465473
0.0001519253
0.000144145
0.0001435852
0.000145608
0.0001489315
0.0001431506
0.000154615
0.0001427157
0.0001662798
0.0001595286
0.0001654083
0.0001692728
0.0001723402
0.0001737807
0.0001971355
0.0001989968
0.0002184077
0.0002319133
0.0002537976
0.0003058314
8.304763e-05
5.432393e-07
1.541682e-05
-2.081489e-05
5.015372e-06
-2.940375e-05
-1.90073e-05
-4.040729e-05
-1.598669e-05
-4.242419e-05
-4.73556e-05
-4.472392e-05
-4.373411e-05
-3.613073e-05
-6.291443e-05
-3.802338e-05
-6.891728e-05
-6.13682e-05
-5.289829e-05
-5.135035e-05
-7.363805e-05
-8.58364e-05
-0.0001094982
-2.137545e-05
-0.0001938146
-0.0004258933
-0.0003494886
-0.0002996534
-0.0002716784
-0.0002497837
-0.0002306734
-0.0002182233
-0.0002110468
-0.0001959188
-0.0001926595
-0.0001854228
-0.0001804078
-0.0001752115
-0.0001723046
-0.0001685846
-0.0001658572
-0.0001637788
-0.0001615659
-0.0001600629
-0.0001588111
-0.0001572543
-0.0001568849
-0.0001557382
-0.0001555163
-0.0001553311
-0.0001554992
-0.000155835
-0.0001565063
-0.0001573844
-0.000158556
-0.0001597056
-0.0001619841
-0.0001635168
-0.0001657669
-0.0001694872
-0.0001713686
-0.0001760462
-0.0001808247
-0.0001869244
-0.0001919886
-0.0002003366
-0.0002081847
-0.0002234616
-0.0002294247
-0.0002546851
-0.0002690297
-0.0003164722
-0.0003275073
-0.0004407416
-0.0001871897
-6.847322e-05
-8.031722e-05
-8.369546e-05
-4.539099e-05
-8.898279e-05
-4.536716e-05
-5.020865e-05
-6.749821e-05
-5.129795e-05
-5.8277e-05
-3.761822e-05
-6.15045e-05
-2.014045e-05
-4.762751e-05
-3.203125e-05
-3.174567e-05
-2.730383e-05
-1.266069e-05
-3.820014e-05
7.808602e-07
-2.248364e-05
6.349985e-08
-8.428133e-06
0.0001078763
-2.021609e-05
6.306035e-06
-1.125668e-05
-4.602564e-05
-0.0001110581
-3.500276e-05
-0.0001727467
-0.0001657391
-1.63918e-05
-0.0001535451
-2.287448e-05
-2.628977e-05
-9.630795e-06
-2.934631e-05
-2.777622e-05
-0.0001512384
-0.0001841157
7.496629e-05
5.604492e-05
2.597799e-05
-0.0001524831
-0.0001532735
-0.000143743
9.952821e-05
0.0001345636
-1.20159e-05
7.072308e-06
0.0001256191
8.466679e-05
-2.331168e-05
0.0001120996
-1.552118e-05
0.0001420867
0.0001423911
-5.232005e-05
-1.173541e-05
0.0001559234
-1.448442e-05
0.0001601783
7.648073e-05
-2.294869e-05
0.0001377406
-3.080576e-06
-6.454219e-05
-2.191714e-05
-6.373687e-05
-0.0001676349
0.0001223656
-0.0001005993
-2.438828e-05
4.670125e-05
-7.933302e-05
-4.732533e-05
-3.280963e-05
6.180003e-05
-2.667975e-05
-1.943109e-05
8.649395e-05
0.0001219756
-4.999886e-05
-3.237739e-05
-4.175026e-05
-1.233664e-05
7.571496e-05
-3.092807e-05
-4.833365e-05
-0.0001439017
-2.248031e-05
-2.343002e-05
-0.0001433568
-0.000126305
0.0001005723
-6.86764e-05
-8.222694e-06
-0.0001849507
-3.170714e-05
-0.000154616
-4.689119e-05
-0.0001950186
-9.333772e-05
7.380009e-05
-2.794355e-05
-1.639267e-05
-9.714797e-06
-4.712003e-05
-0.0001556435
-1.621552e-05
-1.370687e-05
-4.052449e-06
-1.387861e-05
-1.273031e-05
-4.203659e-05
-1.481255e-05
-1.079786e-05
-1.583733e-05
-0.0001283917
-8.767559e-05
-4.12935e-05
-1.417635e-05
-4.389377e-05
-2.292766e-05
0.0001204701
-8.382867e-06
-2.725056e-05
-6.963561e-05
-4.973299e-05
-1.848525e-05
9.858417e-05
-1.304238e-05
-5.390194e-05
-2.670316e-05
-9.797745e-05
-6.039849e-05
-4.360269e-05
-4.521816e-05
9.686725e-05
-0.0001714319
-1.801432e-05
-4.541333e-05
0.0001553536
0.0001796766
-1.333778e-05
-7.359296e-05
-1.856764e-05
-1.74777e-05
-3.310418e-05
0.0001114607
-2.82748e-05
-1.346287e-05
-3.48787e-05
-1.195399e-05
0.0001461005
-1.149546e-05
-3.254523e-05
-5.608419e-05
8.572125e-05
-3.301634e-05
-1.606888e-05
-3.625045e-05
0.0001170975
-6.869338e-05
0.0001939744
-2.21195e-05
-2.783751e-05
-1.274197e-05
-4.939108e-05
-0.0001220585
9.230521e-05
-3.138457e-05
-1.973559e-05
-2.629727e-05
-6.348825e-06
-9.726205e-06
1.360154e-05
0.0001386928
-5.121989e-05
0.0002019442
-3.317348e-05
-4.892318e-05
-2.238575e-05
0.0001541917
7.565948e-06
-6.028838e-05
4.00392e-06
-1.608467e-05
-3.84533e-05
6.241593e-05
-0.0001377616
-3.083413e-05
-4.352837e-05
-1.726079e-05
-9.277516e-05
0.0001096289
-2.86259e-05
5.274266e-05
5.750144e-05
-3.385059e-05
-0.0001009575
-4.302477e-05
-8.568909e-05
-3.442351e-05
-8.574034e-05
0.0001304015
-1.430048e-05
-0.0001621584
-0.0001722533
-2.18781e-05
-6.253789e-05
0.0001184466
-1.651604e-05
0.0001170584
-1.498657e-05
1.577319e-05
0.0001029364
-0.0001044646
-2.380437e-05
-1.434069e-05
0.000136473
0.0001637814
-2.545173e-05
-2.223593e-05
-8.330981e-06
0.0001143501
-1.477392e-05
-1.762542e-05
-0.0001573208
-2.595699e-05
-6.789444e-05
-4.934591e-05
-2.761522e-05
8.345405e-05
-1.305619e-05
-0.0001064262
2.230167e-05
2.376999e-05
-0.0001211966
-0.0001279661
3.755736e-05
0.0001389925
-9.319605e-06
-4.935519e-05
-0.0001543915
-1.785786e-05
-3.555102e-05
-5.600347e-05
-0.0001582255
0.0001223658
2.92568e-05
-0.0001180768
0.0001375484
-0.0001591023
-8.1377e-05
-0.0001832008
-0.0002037115
-4.126881e-05
-0.000159968
-2.165575e-05
-0.0001726993
7.241552e-05
0.0001272277
8.386898e-05
-6.366216e-05
-2.642363e-05
-2.800471e-05
4.980278e-06
-4.838987e-05
-2.817574e-05
-4.149283e-05
1.561497e-06
-9.292278e-06
-0.0001379691
2.287323e-06
-2.492921e-05
8.668943e-05
-3.953206e-05
0.0002146804
-3.881529e-05
-1.691659e-05
-3.871163e-05
8.94662e-05
-3.19196e-05
-1.353922e-05
0.0001314757
-0.0001899711
-3.916277e-05
-2.369177e-05
-3.951171e-05
9.89706e-05
0.0001208867
6.490917e-05
0.0001131373
-7.647279e-05
6.574424e-06
-0.0001512719
-4.089994e-05
-3.861735e-05
0.0001770024
-0.0001612338
-1.705771e-05
-0.0001502439
-9.675448e-05
-3.483011e-05
-0.0001813649
-3.141429e-05
-1.757488e-05
-2.006371e-05
0.0001264173
-1.847096e-05
-7.557209e-05
-6.938313e-07
0.0001842021
8.179039e-05
-0.0001332923
-2.947956e-05
-0.0001253947
-1.265095e-05
-3.39123e-05
-4.287704e-05
-7.813754e-05
-0.0001509551
0.0001687726
-2.427264e-05
-3.554635e-05
4.562466e-05
-2.053704e-05
-0.0001088803
-6.934412e-05
-0.0001000644
-3.958971e-05
-3.016279e-05
-2.331718e-05
0.0001267281
0.0001530385
0.0001437682
-0.0001381687
-1.036739e-05
-2.291464e-05
3.198409e-06
-7.359614e-05
-4.883296e-05
-0.0001496604
4.978015e-06
0.0001045276
-4.436965e-05
-1.744621e-06
-3.502902e-05
-0.0001097463
2.614117e-05
-0.000195592
0.0001200246
-1.667018e-05
-0.000148154
-1.427014e-05
-1.152633e-05
-1.079053e-05
-1.226465e-05
-1.569019e-05
-6.008879e-05
-4.055811e-05
-3.269844e-05
0.0001350561
-4.589129e-05
9.693477e-05
7.193853e-05
-1.406755e-05
-2.20006e-05
0.0001338789
0.0001102552
0.0001135557
0.000100462
0.0001423162
-2.435669e-05
-3.609856e-05
-3.834276e-05
-8.254182e-05
-9.336862e-05
0.0001601973
0.0001470895
0.0001476224
0.0001628993
-6.101866e-05
-0.0001710342
-0.0001414562
-2.514478e-05
-5.482803e-05
6.427032e-05
-2.71384e-05
-2.910026e-05
-3.811687e-05
-1.948687e-05
-1.773509e-05
2.618762e-05
-4.434443e-05
-4.73535e-05
-3.897672e-05
-2.849055e-05
-3.737753e-05
0.0001857031
-5.360983e-05
-1.607036e-05
-3.3281e-05
-3.38256e-05
-1.048246e-05
-9.083907e-06
0.0001262637
-2.951766e-05
-3.328454e-05
0.0001478976
0.0001316684
-0.0001562733
0.0001245342
1.62792e-05
-1.905289e-05
-2.873508e-05
0.0001296941
-2.387811e-05
-1.153198e-05
-0.0001096279
-1.322657e-05
-1.596829e-05
-1.298034e-05
2.098022e-05
8.014334e-07
0.0001353163
0.0001782186
-2.90087e-05
5.930273e-05
-1.144839e-05
-0.0001602434
-0.0001523443
-0.0001389299
0.0001321577
-1.401474e-05
-0.0001574282
-1.205291e-05
9.613104e-05
-2.792603e-05
-4.693058e-05
-2.886467e-05
-2.410748e-05
-2.355471e-05
-1.581824e-05
0.0001377246
7.790675e-05
-5.953775e-05
-3.40477e-05
-3.238817e-05
-2.055112e-05
-2.680528e-05
3.550674e-05
-2.565874e-05
-6.228998e-05
-7.797578e-05
-5.732921e-05
5.293951e-05
-0.0001526734
-3.487885e-05
-4.05342e-05
-1.963864e-05
-2.399006e-05
-3.146932e-05
-4.378628e-05
-6.943491e-05
0.0001357983
-1.354997e-05
-5.130484e-06
-3.506331e-05
-4.041308e-05
-3.256474e-05
-1.525342e-05
-6.452756e-05
0.0001522994
1.205754e-05
-3.148268e-05
-3.766066e-05
-3.274641e-05
-2.197089e-05
-1.676676e-05
-2.294467e-05
-2.679117e-05
-1.361905e-05
-6.440134e-05
-1.505071e-05
7.439157e-05
-4.105234e-05
-6.887673e-05
-2.531331e-05
-4.745782e-05
-4.440484e-05
-1.146939e-05
0.0001465464
-2.493407e-05
-1.841003e-05
-0.0001419304
0.0001548646
-0.0001518937
-0.0001522646
-1.244327e-05
-2.190393e-05
8.327015e-05
-1.346472e-05
-1.515535e-05
0.0001017202
-3.772837e-05
0.0001482655
0.0001553313
-0.0001500287
0.0001105799
0.0001436063
0.0001242315
-0.000142262
0.0001250476
-1.90293e-05
0.0001032134
-2.657811e-05
-7.165296e-05
-1.947592e-05
-3.531155e-05
0.0001202675
1.860771e-06
-2.127554e-05
-9.138304e-05
6.341086e-05
-0.0001164278
-3.092026e-05
0.0001216493
0.0001373698
-5.719826e-05
6.876945e-05
9.152809e-05
-7.6133e-05
-1.762417e-06
-2.335794e-05
-1.489838e-05
-1.400892e-05
-6.516622e-05
-3.682685e-05
3.142834e-05
0.0001820898
-2.512624e-05
-4.204419e-05
0.0001800292
0.0001215022
-2.664e-05
8.066991e-05
-0.0001068509
-3.373805e-05
-4.863307e-05
-0.0001112995
-5.673072e-06
0.0001458495
0.0001536029
0.0001468576
-7.643246e-05
-3.360777e-05
-4.098185e-05
-2.443968e-05
-2.493882e-05
-2.009539e-05
-1.635058e-05
-1.674211e-05
-1.728809e-05
-1.494515e-05
-1.274969e-05
-5.581254e-05
-0.000158351
-0.0002302379
-8.596145e-05
5.393918e-05
-2.574566e-05
-2.739272e-05
-2.7721e-05
0.0001924965
-1.090981e-05
-2.444637e-05
-1.215545e-05
-1.022753e-05
-1.109081e-05
1.030449e-05
-0.0001988424
-7.318011e-05
-7.942918e-06
-4.939055e-05
-5.186471e-05
2.408323e-05
7.379882e-05
-5.079096e-05
-5.635225e-05
-8.841327e-05
0.000127388
-4.073906e-05
-2.109611e-05
-1.385387e-05
-3.39442e-05
-0.0001669002
-2.919663e-05
0.0001178453
0.0001272618
-1.036771e-05
-5.760737e-05
-5.402215e-05
1.665106e-05
-7.802921e-07
-2.978497e-05
0.0001282508
-1.791562e-05
7.397887e-05
-1.216667e-05
9.035579e-05
0.0001162444
1.35413e-05
-1.161611e-06
-2.5948e-06
-0.0001128739
7.187186e-05
0.0001092191
-3.150885e-05
9.85232e-05
-1.244403e-05
-2.039334e-05
-0.0001525938
3.101005e-05
-0.0001087157
-3.628191e-05
-2.056405e-05
-0.0001727957
6.256447e-05
0.0001748341
-0.0001914453
-1.364991e-05
-2.277093e-05
-5.804143e-05
2.477944e-05
-3.194903e-05
-1.952714e-05
-1.84101e-05
-3.095229e-05
-0.0001511019
-8.588687e-05
-0.000120697
-0.0001544193
-0.0001519097
-2.373474e-05
4.439194e-05
3.894774e-05
-2.367623e-06
8.837604e-05
0.0001928832
0.0001092952
-1.735558e-05
-2.055092e-05
-1.244243e-05
-1.293833e-05
-1.561428e-05
-1.116012e-05
-1.676897e-05
0.0001120488
-2.434695e-05
0.0001865684
-1.04694e-05
-3.095e-05
-3.891113e-05
8.128711e-05
-3.152733e-05
-3.189724e-05
-0.000176058
-0.0001205539
-0.0001795564
-0.0001292486
8.197715e-05
-0.0002414789
-3.013405e-05
-2.851403e-05
-5.796115e-05
-3.876228e-05
-0.000119897
-0.0001461905
-0.0001031007
9.667687e-05
-0.0001575505
-3.973036e-05
-3.639018e-05
-1.811893e-06
-3.096858e-05
0.0001103161
-4.578746e-05
-3.947367e-05
-0.0001659943
-2.322069e-05
-3.033302e-05
-0.000102229
-3.904211e-05
-1.715279e-05
-0.000108268
-2.235689e-05
7.277929e-05
-2.612831e-05
-2.89973e-05
-2.2898e-05
0.0001512346
-0.000125032
-1.064323e-05
-9.978524e-06
3.410365e-05
-0.0001067595
-0.0001153949
-8.553972e-06
-3.955244e-05
7.393642e-05
-1.961061e-05
-0.0001430023
-2.585638e-05
-2.578974e-05
-5.974412e-05
-0.0001777602
-0.0001801255
0.0001243114
-4.368701e-05
-3.438681e-05
0.0001307524
-9.671988e-05
9.762095e-05
-3.909642e-05
-5.935348e-05
0.0001186246
-0.0001551892
-2.203588e-05
4.617174e-07
-2.145328e-05
-0.0001603873
-1.070775e-05
-8.96886e-06
0.0001304673
0.0001010061
0.0001143442
0.0001169491
0.0001335938
0.0001555214
-1.333601e-05
8.327356e-06
-7.346923e-06
-3.19074e-05
-3.018904e-05
-3.40044e-05
-3.11119e-05
-0.0001521083
-1.295318e-05
-1.202357e-05
-2.540143e-05
-3.214027e-05
0.0001750953
0.0001637752
0.0001191365
0.0001292997
-3.297951e-05
-5.342686e-05
-2.436701e-05
-2.365422e-05
7.38817e-05
-2.365116e-05
-7.861413e-06
-3.662397e-06
-4.346936e-05
0.0001182201
0.0001484298
-1.552572e-05
-1.169036e-05
3.801864e-05
-5.039181e-05
-0.0001307175
-2.382224e-05
7.548005e-05
-8.650618e-06
-3.517143e-05
-1.850953e-05
-6.840652e-05
-1.659542e-05
6.22162e-05
-0.0001329903
0.0001775169
-2.682111e-05
7.264369e-05
3.127023e-05
3.610967e-05
-0.0001542653
-4.317179e-05
-0.0001759021
6.333005e-07
-3.096371e-05
-9.240508e-05
-4.931313e-05
-1.745435e-05
-1.007115e-05
-2.582501e-05
-1.751483e-05
-2.21754e-05
4.195122e-05
8.324949e-05
-5.329986e-05
-7.735269e-05
-2.571412e-05
3.558448e-05
-6.931099e-05
-0.0001594379
-3.90109e-05
-1.460283e-05
-0.0001390364
3.632346e-05
-1.150363e-05
-3.247547e-06
-2.66653e-05
-4.114201e-05
0.0001813685
0.0001586824
0.0001773423
0.0001469147
-0.0001589763
-1.436043e-05
1.526203e-05
-3.998638e-05