/*--------------------------------*- C++ -*----------------------------------*\
| =========                 |                                                 |
| \\      /  F ield         | OpenFOAM: The Open Source CFD Toolbox           |
|  \\    /   O peration     | Version:  2406                                  |
|   \\  /    A nd           | Website:  www.openfoam.com                      |
|    \\/     M anipulation  |                                                 |
\*---------------------------------------------------------------------------*/
FoamFile
{
    version     2.0;
    format      ascii;
    arch        "LSB;label=32;scalar=64";
    class       volVectorField;
    location    "0.04";
    object      U;
}
// * * * * * * * * * * * * * * * * * * * * * * * * * * * * * * * * * * * * * //

dimensions      [0 1 -1 0 0 0 0];

internalField   nonuniform List<vector> 
4529
(
(0.01004202 -0.0001880392 0)
(0.009895615 -4.498535e-05 1.838903e-24)
(0.009915645 1.78452e-05 -2.105984e-24)
(0.009759072 -0.0001009899 -4.6372e-24)
(0.009847446 3.886975e-05 2.679446e-24)
(0.009835994 0.000282387 0)
(0.009931909 6.647497e-05 0)
(0.009910367 0.000209437 -2.646976e-25)
(0.009873587 -1.234422e-05 -2.034881e-24)
(0.009941746 -6.181514e-05 1.0821e-25)
(0.01009511 -2.419208e-05 -4.143756e-25)
(0.009988192 -0.0001131638 -4.319471e-25)
(0.00998469 -5.9263e-05 4.936732e-25)
(0.009987782 -0.0001069767 -4.91705e-25)
(0.00994412 -3.35098e-05 0)
(0.009971346 -4.95654e-05 7.06279e-25)
(0.009863246 -9.959792e-05 0)
(0.009961252 -7.691284e-05 7.053158e-25)
(0.01002715 -4.557858e-05 0)
(0.009933712 -0.0001329106 -4.828821e-26)
(0.01000552 -4.797018e-05 9.616299e-27)
(0.009952488 -5.377176e-05 1.716912e-24)
(0.00995212 -1.083148e-05 -5.434992e-25)
(0.009919987 -3.792467e-05 0)
(0.01000396 -4.144508e-05 6.623186e-27)
(0.009920388 -6.319469e-05 2.243572e-26)
(0.009960752 0.0002945435 -3.645079e-25)
(0.009837504 9.746392e-05 -1.447476e-24)
(0.009875666 0.0001663742 1.770682e-24)
(0.009814901 2.105235e-05 -2.184596e-24)
(0.0100104 -8.129311e-05 1.537095e-26)
(0.009950964 1.230068e-05 7.128617e-25)
(0.009973178 -3.971496e-05 0)
(0.01002966 -7.590328e-05 0)
(0.01014523 -0.0001431753 0)
(0.009898143 7.736192e-05 3.137717e-24)
(0.009922357 -3.548895e-05 -6.6565e-25)
(0.009979809 -0.0001408629 0)
(0.009838886 -0.0001428697 -3.270127e-24)
(0.01008807 -0.0001925415 -8.740079e-25)
(0.00994812 -2.071563e-05 -6.105381e-26)
(0.009974734 -3.575754e-05 -5.754296e-25)
(0.00994196 -1.846747e-05 -1.08989e-24)
(0.01001551 -6.271403e-05 0)
(0.01001575 -5.707368e-05 5.347816e-26)
(0.01009488 -0.000145987 -2.701671e-24)
(0.009940749 8.032906e-06 0)
(0.009901209 -3.801786e-05 0)
(0.01002892 -3.806252e-05 6.375799e-27)
(0.009878345 1.470741e-05 -2.436662e-24)
(0.009621047 -6.18271e-05 9.018162e-24)
(0.009934369 -4.792487e-05 -5.489298e-25)
(0.009603463 9.081023e-05 0)
(0.01005557 -0.0001184241 -3.868465e-26)
(0.009904696 -0.0001687945 3.135915e-25)
(0.009872766 -3.475841e-05 -1.267931e-24)
(0.009881762 -1.159108e-05 0)
(0.01010108 -1.041861e-05 4.203986e-24)
(0.009738254 0.0002057682 8.219361e-24)
(0.009697283 -0.0002144022 -5.945477e-24)
(0.009904408 0.0001446018 1.377215e-24)
(0.01007805 -0.0001149981 0)
(0.009986103 -4.051683e-05 -2.399899e-25)
(0.009688021 -0.0002503646 0)
(0.009922899 3.896014e-05 0)
(0.01004415 -0.0001089479 2.457207e-26)
(0.009998837 -0.000175427 6.042361e-25)
(0.009953993 -2.908676e-05 5.46708e-25)
(0.009921902 8.58785e-06 0)
(0.01018482 -0.0001250782 0)
(0.009927096 -1.68604e-06 3.262552e-24)
(0.009889397 -3.260237e-05 2.301192e-24)
(0.009812535 -1.741818e-05 -1.887074e-24)
(0.009976108 -3.893094e-05 -7.302752e-25)
(0.00961761 7.700071e-05 -2.439643e-24)
(0.009806737 -0.000164688 -4.224235e-24)
(0.01010832 -0.0001947493 -1.463631e-24)
(0.01005816 -5.540881e-05 0)
(0.009776824 -0.0002986061 4.862735e-24)
(0.009886018 2.610306e-05 5.102608e-25)
(0.009834598 -1.26252e-05 3.249075e-24)
(0.009936549 2.285447e-05 1.195193e-24)
(0.0100398 -5.728601e-05 -2.084741e-25)
(0.009944409 -6.127765e-05 -2.913177e-25)
(0.009893713 -9.234858e-05 -1.678739e-24)
(0.009971847 -5.704572e-05 1.617671e-24)
(0.01002297 -4.487757e-05 0)
(0.01006369 -8.463274e-05 0)
(0.01009716 -0.0001306727 0)
(0.01003877 -0.000227419 4.090728e-25)
(0.009637165 -0.000132689 2.853665e-24)
(0.009966359 -2.920414e-05 0)
(0.01003873 -5.036263e-05 -1.206258e-25)
(0.009938414 4.270554e-05 -3.963608e-25)
(0.009959762 -2.620448e-05 0)
(0.009997524 -0.0001206062 -4.579715e-25)
(0.009750943 -4.980231e-05 -4.620912e-24)
(0.009921531 -0.0001988855 -2.713559e-25)
(0.00990804 0.000272383 6.575489e-24)
(0.009906193 -9.136811e-05 -1.371441e-24)
(0.009974932 -4.989358e-05 0)
(0.009833098 -9.012783e-05 -8.048549e-26)
(0.009902535 4.268521e-05 1.802528e-24)
(0.009925764 -0.0001921038 -2.59397e-25)
(0.00995045 -4.160584e-05 -8.21368e-25)
(0.01009616 -0.0001543169 -8.675283e-25)
(0.009958395 -0.0003665984 3.711386e-24)
(0.01010921 -0.0001518647 4.310527e-25)
(0.01006237 -8.058866e-05 -2.688756e-24)
(0.01002244 -0.0001276307 2.560068e-26)
(0.009994774 -3.798091e-05 8.602729e-26)
(0.009946712 2.93735e-05 5.664178e-25)
(0.009789926 0.0001135831 0)
(0.009843993 0.0001330436 7.843139e-24)
(0.009803285 -3.219555e-05 0)
(0.00995508 -3.409828e-05 -9.52071e-25)
(0.009978488 -0.0002006182 -2.461414e-24)
(0.009902559 0.000150916 1.991428e-24)
(0.009933691 -5.754324e-05 -8.921895e-25)
(0.009992864 -6.952106e-05 0)
(0.009946711 -0.0002333777 0)
(0.009922335 3.294683e-05 -4.993045e-26)
(0.01005147 -0.000185349 0)
(0.009989024 -0.0001659872 -9.180117e-25)
(0.009952691 -3.592213e-05 5.750254e-25)
(0.009856372 -0.0001024313 0)
(0.009915299 0.0001458857 0)
(0.01005208 -8.713376e-05 -7.070666e-25)
(0.009941357 -3.617499e-05 0)
(0.009823716 -0.0001874002 -3.470783e-24)
(0.009926618 4.737039e-05 3.48033e-26)
(0.009901902 0.0002514538 4.921786e-24)
(0.00962378 -0.0001487796 -7.320478e-24)
(0.01004387 -0.0001512849 -1.053307e-25)
(0.010089 -0.0001847308 0)
(0.0100361 -8.01841e-05 -4.056324e-25)
(0.01004462 -7.92721e-05 0)
(0.01000634 -6.131575e-05 2.267592e-26)
(0.009991759 -0.0001323726 0)
(0.009917156 -0.0001027149 0)
(0.009950802 -0.0001927584 1.622191e-24)
(0.009961508 -0.0001412433 -2.389791e-24)
(0.009974767 -7.09888e-05 -5.182376e-25)
(0.009873189 -0.0001243713 -3.301149e-24)
(0.009748101 5.076725e-06 6.089241e-25)
(0.009910032 0.0001957975 2.514646e-24)
(0.01005512 -0.0001794667 7.388748e-25)
(0.009800949 2.311769e-05 2.330142e-24)
(0.009923563 0.0001186138 0)
(0.009927788 -5.68858e-05 7.162437e-25)
(0.009908511 -7.884513e-06 8.775056e-25)
(0.009851923 0.0001135642 -8.99829e-25)
(0.00989509 -0.000146474 2.164831e-24)
(0.009974623 -4.45121e-05 5.216044e-25)
(0.00989447 0.0002931971 6.197527e-24)
(0.009986641 -7.322051e-05 -4.618349e-25)
(0.01002513 -9.51026e-05 0)
(0.009908967 -0.0002083656 0)
(0.009969144 -8.027568e-05 -9.056021e-25)
(0.009915168 2.056995e-05 1.980672e-24)
(0.01017032 -0.0001774505 0)
(0.009996634 -5.227666e-05 2.059974e-25)
(0.00984974 -0.0002224835 -1.824966e-25)
(0.009980584 -0.0002579541 1.159847e-24)
(0.01000822 -4.594511e-05 -2.916131e-26)
(0.01002195 -4.632317e-05 0)
(0.01001044 -6.061713e-05 -1.251555e-26)
(0.00992421 -0.0001165125 0)
(0.01001294 -0.0002902745 0)
(0.009923636 7.286967e-05 -2.153101e-24)
(0.009771306 0.0002082539 0)
(0.00994004 2.066439e-05 0)
(0.009630717 -0.0002235512 4.473056e-24)
(0.01004017 -6.498075e-05 -1.343864e-25)
(0.01012116 -0.0002090146 0)
(0.009883698 0.0001344375 -1.133708e-24)
(0.009980769 -0.0001623089 -1.471616e-24)
(0.009741776 -0.0003040948 -4.956455e-24)
(0.00960049 -0.0001850304 -2.621191e-25)
(0.01018271 -0.0002024117 0)
(0.01004081 -6.882549e-05 -5.439648e-25)
(0.009908891 -6.958772e-05 0)
(0.009925127 5.157067e-06 3.300419e-24)
(0.009936169 1.094617e-06 1.614984e-24)
(0.01020649 -0.0001470248 -1.965862e-24)
(0.00963027 -0.000309743 -4.785547e-24)
(0.009923831 -0.0001667373 -1.775825e-24)
(0.009992848 -6.739954e-05 -2.758138e-25)
(0.009804865 -6.204686e-06 8.590345e-25)
(0.009993471 -7.418196e-05 0)
(0.009891525 0.0001588769 7.077319e-25)
(0.009666928 -7.948167e-05 0)
(0.01005652 -7.712728e-05 0)
(0.009897624 0.0002288962 -1.120072e-25)
(0.009921427 -7.200637e-05 0)
(0.01010411 -0.0001384069 7.718665e-25)
(0.01002714 -6.256696e-05 0)
(0.009730734 -5.051828e-05 0)
(0.01019433 -0.0001539712 4.230243e-24)
(0.01000924 -4.902337e-05 2.921364e-26)
(0.009939619 3.803731e-05 1.387586e-24)
(0.01009569 -8.990325e-05 1.567333e-24)
(0.009945613 4.770641e-06 -3.194742e-25)
(0.009673333 5.382251e-05 0)
(0.009958211 -3.47827e-05 0)
(0.009902732 -4.846496e-05 -1.98966e-24)
(0.009823816 -0.0001999303 0)
(0.009900292 -4.488558e-05 0)
(0.009872803 7.537274e-05 0)
(0.009677424 -0.0002171745 5.412997e-24)
(0.0100352 -8.421416e-05 -2.869689e-26)
(0.009862435 4.930392e-05 5.478798e-25)
(0.01001821 -0.0001069153 0)
(0.009886308 -0.0001675207 2.371608e-24)
(0.009919827 -0.0001039416 2.076349e-24)
(0.009907624 0.0001079206 0)
(0.009943717 -9.747867e-05 0)
(0.009962839 -5.841275e-05 -1.858152e-24)
(0.009902151 3.52108e-05 0)
(0.01011151 -8.066046e-06 -5.397916e-24)
(0.009907072 -0.0001079742 -2.046894e-24)
(0.009989904 -4.772801e-05 4.787681e-26)
(0.009937038 -0.0001078017 -8.24284e-25)
(0.009999653 -7.951513e-05 -1.449971e-27)
(0.009997945 -0.0001278785 -9.783894e-25)
(0.01012136 -0.0001226539 -3.321608e-25)
(0.009956646 -2.970465e-05 -1.753069e-24)
(0.009886882 -1.649352e-05 -1.220098e-24)
(0.009838193 -0.0002848637 3.932046e-24)
(0.009978461 -3.669727e-05 9.874886e-25)
(0.009912133 0.0003048731 0)
(0.009673372 0.0001436721 7.379211e-24)
(0.009849944 -0.0004213397 0)
(0.01000902 -9.848175e-05 -7.816651e-26)
(0.009870344 -6.547898e-05 -1.337118e-24)
(0.009899945 0.0001390369 2.011091e-24)
(0.01000141 -0.0002231853 1.126777e-26)
(0.00986936 -0.00020027 -3.359472e-24)
(0.01002851 -6.108396e-05 2.520197e-25)
(0.009903679 2.257678e-05 1.158013e-24)
(0.009873267 4.553937e-05 0)
(0.01002504 -5.776212e-05 0)
(0.009977041 -5.629511e-05 8.982994e-25)
(0.009718488 -9.281134e-05 4.846442e-24)
(0.0100747 -4.53946e-05 1.753728e-25)
(0.009885944 -0.0001768628 -7.104987e-25)
(0.009783648 -0.0003376689 4.008673e-24)
(0.009953564 -6.127326e-05 0)
(0.00996886 -0.0001249871 -6.171749e-25)
(0.01004438 -5.834645e-05 0)
(0.009975151 -0.0002851988 -2.213813e-25)
(0.01005757 -6.247001e-05 0)
(0.009820482 -4.964523e-05 -3.441261e-24)
(0.0100587 5.98999e-07 0)
(0.01017557 -0.0002053989 2.23083e-24)
(0.01001356 -0.0001421816 1.858584e-25)
(0.009828059 -3.494236e-06 0)
(0.009703475 0.0001577338 -2.389227e-24)
(0.009799741 -9.517526e-05 0)
(0.00994703 -6.318923e-05 8.576308e-25)
(0.01005466 -5.363391e-05 0)
(0.009970844 -3.107814e-05 -5.641066e-25)
(0.00994563 -2.987994e-05 -9.086591e-25)
(0.009986173 -8.860202e-05 3.88884e-25)
(0.009921478 2.258556e-05 0)
(0.009784887 0.0001706647 4.275958e-24)
(0.009921366 -3.256934e-05 7.954887e-25)
(0.01004432 -0.0003040607 -7.728341e-26)
(0.009889049 -4.939105e-05 1.31193e-24)
(0.009965979 -5.229066e-05 5.808334e-25)
(0.009923686 -8.517863e-05 0)
(0.009995204 -5.940913e-05 -2.191789e-25)
(0.01006389 -0.000189105 0)
(0.01003815 -0.0003354759 -1.74438e-24)
(0.009709535 0.0002019751 1.380802e-24)
(0.01000221 -4.791976e-05 -5.318784e-26)
(0.01000756 -5.785656e-05 0)
(0.0100189 -6.548612e-05 -8.798759e-26)
(0.009813724 -0.0001333244 6.920941e-25)
(0.009851754 -0.0004061928 0)
(0.009982202 -0.0001161711 4.458077e-25)
(0.009942534 3.279776e-05 8.657793e-25)
(0.01002762 -8.619001e-05 2.778819e-25)
(0.009923897 -0.000225312 0)
(0.0100152 -4.984094e-05 2.036792e-25)
(0.009918649 1.662891e-05 -1.268748e-24)
(0.009919052 9.949962e-05 0)
(0.01001091 -6.286906e-05 9.504563e-26)
(0.009881671 -7.760455e-05 0)
(0.009948747 -0.000106836 -1.176128e-24)
(0.009973725 -0.0003625893 0)
(0.01006119 -0.0001771012 -8.852833e-25)
(0.01000761 -0.0001384612 4.408124e-25)
(0.009919553 -1.305089e-05 1.147643e-24)
(0.009892258 2.030796e-05 5.947107e-26)
(0.01003534 -0.000139818 -1.474248e-25)
(0.009938597 9.044951e-06 0)
(0.009917631 -0.0001522623 0)
(0.009972735 -5.548409e-05 -2.08187e-25)
(0.009956543 -0.000140253 -2.390967e-24)
(0.00993327 -4.987726e-06 -7.35747e-25)
(0.009919789 -2.401298e-05 0)
(0.009878678 6.459037e-05 1.559748e-24)
(0.01016251 -9.276235e-05 0)
(0.01000019 -0.0001687159 -5.872013e-25)
(0.009892582 0.0001255462 4.361387e-24)
(0.009961004 -0.0002992238 0)
(0.00994683 -4.552808e-05 1.585175e-24)
(0.009870434 -8.666912e-05 0)
(0.009974731 -8.136914e-05 6.200959e-26)
(0.009966303 -6.840757e-05 0)
(0.009929389 6.419437e-05 0)
(0.01005537 -6.377319e-05 -6.930816e-25)
(0.009921447 -5.744892e-05 0)
(0.009999866 -0.0002732779 0)
(0.01001028 -0.000177132 0)
(0.009932027 3.909722e-05 1.536155e-24)
(0.009943931 3.663152e-05 0)
(0.00974144 0.000286241 -2.199603e-24)
(0.01009959 -0.0001067192 1.369165e-24)
(0.0100319 -0.000126457 0)
(0.01012498 -0.0001121666 -3.128941e-24)
(0.009898218 3.529591e-05 0)
(0.009839243 -7.054079e-05 1.885436e-24)
(0.009987341 -0.0001253411 -1.137724e-24)
(0.009876844 -2.089031e-05 -4.250947e-24)
(0.00996434 0.0002472085 1.578505e-24)
(0.009998817 -3.894729e-05 1.96506e-25)
(0.009983206 -5.351821e-05 2.611453e-25)
(0.01000452 -4.454479e-05 3.65243e-26)
(0.01000302 -5.266173e-05 5.967921e-26)
(0.009991544 -4.618208e-05 0)
(0.009984682 -3.844937e-05 0)
(0.009930611 -2.456008e-06 -2.871447e-26)
(0.01008041 -0.0001279289 0)
(0.009792021 5.993644e-05 0)
(0.009823421 9.071655e-05 -1.53248e-25)
(0.009895563 9.91769e-05 0)
(0.009988748 -3.610533e-05 3.739457e-25)
(0.009960914 -4.332401e-05 7.713449e-25)
(0.009952838 -2.786814e-05 0)
(0.009927174 -0.0001786618 -2.525939e-24)
(0.01017998 -0.0001459441 -5.85163e-24)
(0.009846545 0.0001913378 -1.256098e-25)
(0.009903573 -0.0002546589 0)
(0.01009488 -0.0001032069 -1.115831e-25)
(0.00990906 3.474644e-05 0)
(0.009814785 0.000223177 7.552433e-26)
(0.009817961 9.987994e-05 -2.951688e-24)
(0.009947049 4.606054e-06 2.628112e-25)
(0.009955207 -5.743725e-05 -2.216651e-25)
(0.01009933 -8.334909e-05 8.696397e-25)
(0.009942057 2.467159e-05 8.035905e-25)
(0.00993731 2.862228e-05 -1.462739e-24)
(0.01009593 -0.0001602885 -6.638331e-25)
(0.009860432 -6.06985e-05 2.598039e-24)
(0.009848732 0.0002116541 -5.334474e-25)
(0.01012445 -1.337526e-05 2.89806e-24)
(0.00992539 -5.144388e-05 0)
(0.009935899 -2.283934e-05 -2.491149e-24)
(0.009981202 -4.051681e-05 -6.065185e-25)
(0.01013978 -0.0002456854 -1.196051e-24)
(0.009898048 -1.34526e-05 0)
(0.009980912 -6.394427e-05 5.07928e-25)
(0.009994074 -9.775251e-05 -1.845902e-25)
(0.01002933 -8.014778e-05 0)
(0.01002262 -0.0001010664 1.321298e-25)
(0.00986408 -1.197915e-06 2.086259e-24)
(0.009931676 7.359117e-05 1.233556e-24)
(0.010069 -0.0002775548 7.760503e-25)
(0.01003011 -9.111791e-05 0)
(0.009981244 -7.357486e-05 -4.853793e-25)
(0.00994668 -0.0001271152 0)
(0.0100626 -7.510272e-05 9.271771e-25)
(0.009939216 -8.791034e-05 5.922415e-25)
(0.009990471 -3.150318e-05 -2.079557e-25)
(0.01004626 -3.827413e-05 0)
(0.009722234 -6.971047e-05 5.023905e-24)
(0.009620898 -3.574728e-05 -2.318325e-24)
(0.009947463 -0.000144452 -7.933505e-25)
(0.009963975 -8.050814e-05 9.372918e-25)
(0.01006382 -0.0001117315 1.46108e-24)
(0.01004491 -5.495952e-05 -6.895044e-25)
(0.01001748 -6.870545e-05 -2.545795e-25)
(0.01015007 -0.0002345728 -1.395582e-24)
(0.01001342 -6.370623e-05 -2.565169e-26)
(0.009933348 -0.0003575836 -1.84354e-24)
(0.01018487 -0.0001334855 0)
(0.009862295 1.377058e-05 -2.376703e-24)
(0.01001439 -3.979748e-05 0)
(0.009709887 9.445378e-05 1.766256e-25)
(0.01012727 -0.0001518806 6.318823e-25)
(0.01018521 -7.736282e-05 5.486116e-24)
(0.00990476 6.190008e-05 0)
(0.01008601 -0.0002440368 0)
(0.009902515 7.0288e-05 2.248786e-24)
(0.009915515 7.578244e-05 9.482698e-25)
(0.009912935 0.0001187479 -1.344812e-24)
(0.009913479 6.745559e-05 0)
(0.009868942 7.036863e-05 0)
(0.009939418 8.547729e-05 0)
(0.01011503 -0.0001194443 -4.742711e-25)
(0.009714071 4.917121e-05 0)
(0.009737856 7.779286e-05 0)
(0.009723275 4.075449e-05 -4.330085e-24)
(0.009972512 -7.66118e-05 -3.719772e-25)
(0.009747454 0.0001005946 -3.024729e-24)
(0.009978029 -4.533738e-05 -1.963689e-26)
(0.01013565 -0.0001547741 0)
(0.009917794 -3.186178e-05 -1.453006e-24)
(0.009869276 -4.144813e-06 2.018464e-24)
(0.009952297 -5.123025e-05 -1.127138e-24)
(0.009807457 0.0001014335 2.910455e-24)
(0.009931802 7.671509e-07 -1.267024e-24)
(0.01004228 -7.51202e-05 -5.714701e-25)
(0.009977256 -4.772655e-05 0)
(0.009970089 -6.795368e-05 1.172276e-24)
(0.009882084 -6.35016e-05 -2.039664e-24)
(0.01000413 -7.731539e-05 1.396952e-25)
(0.0100694 -9.064605e-05 3.65181e-26)
(0.00974542 -0.0002316547 -3.44325e-24)
(0.01000886 -0.0002703207 0)
(0.009714929 -0.0001425337 5.649397e-24)
(0.009861302 0.0001533659 0)
(0.009723377 -0.0003363047 -6.162279e-24)
(0.009647705 -4.973701e-05 -1.720374e-24)
(0.009895007 0.0002712617 0)
(0.009945253 -0.0001737771 1.611221e-24)
(0.01014445 -0.0002757792 2.116812e-25)
(0.009902077 -8.907431e-05 -6.29421e-25)
(0.009985013 -4.415762e-05 3.45693e-25)
(0.01012689 -0.0001878326 -4.192454e-25)
(0.009701876 -0.0003055663 -5.117821e-24)
(0.009669376 8.16715e-05 5.73007e-24)
(0.01008047 -9.990355e-05 -1.530416e-24)
(0.009953425 -3.90688e-05 -1.191833e-24)
(0.01004764 -7.332416e-05 -5.249664e-25)
(0.01002694 -6.546678e-05 -3.07031e-25)
(0.009861163 -5.031336e-05 0)
(0.01005162 -8.903442e-05 -2.051623e-25)
(0.01004544 -0.0002618161 -6.6179e-26)
(0.01000421 -8.173245e-05 8.993087e-26)
(0.009944936 -0.0003169611 0)
(0.009925892 -3.603766e-05 0)
(0.009940757 5.867952e-05 2.62096e-26)
(0.009945364 5.719646e-05 0)
(0.01008325 -0.0001044991 2.167396e-24)
(0.009935893 5.281048e-05 -3.657873e-25)
(0.009937298 3.867184e-05 -8.768835e-25)
(0.009890985 6.490059e-05 0)
(0.009852936 -0.000199407 -2.261393e-24)
(0.009943049 -0.0001238167 2.19527e-24)
(0.009903068 -0.0001164149 1.36402e-24)
(0.009968875 -9.457124e-05 3.791232e-25)
(0.00998187 -0.0001098391 -1.003891e-24)
(0.009978846 -0.0003343503 -1.760414e-24)
(0.009956941 -2.563653e-05 0)
(0.00990081 -0.0002072791 3.402699e-24)
(0.01010662 -0.0002142767 7.517696e-25)
(0.009976268 -6.713094e-05 1.314245e-24)
(0.01007571 -0.0001455972 1.332036e-24)
(0.01003264 -0.0001973999 -3.060313e-26)
(0.009930607 5.202904e-06 0)
(0.01019621 -0.0001583336 0)
(0.009916133 0.0001831298 3.25912e-25)
(0.00985194 6.564647e-05 -7.680543e-25)
(0.009965009 -3.163873e-05 0)
(0.009977938 -9.974048e-05 3.315195e-25)
(0.01002723 -0.0001182545 -2.458008e-25)
(0.009988968 -3.843627e-05 1.495666e-25)
(0.01003116 -7.827682e-05 0)
(0.01017396 -0.0001713666 3.314871e-24)
(0.009892473 8.322643e-05 0)
(0.009928426 -1.687681e-05 0)
(0.009784328 -2.194555e-05 0)
(0.01001271 -3.848282e-05 0)
(0.009843 7.21857e-05 1.078472e-25)
(0.009940728 -9.410493e-06 -9.346911e-25)
(0.01003492 -7.833087e-05 -9.851397e-26)
(0.009956501 -3.534157e-05 -1.241966e-25)
(0.01018558 -0.0001948051 -3.429579e-24)
(0.01013589 -0.0002726392 -1.752869e-25)
(0.01012522 -0.0002532077 0)
(0.009992104 -4.038504e-05 2.450292e-25)
(0.009937736 -3.465013e-05 0)
(0.01012614 -0.0001688996 0)
(0.009879014 5.504176e-05 0)
(0.01005263 -7.118367e-05 -2.368549e-25)
(0.009930207 -9.630116e-05 1.33578e-24)
(0.009900912 0.0001890466 0)
(0.00959521 -0.0003825974 8.326864e-25)
(0.009907132 -2.005085e-06 -1.029218e-24)
(0.009894377 1.303206e-05 0)
(0.009988922 -3.283235e-05 3.587686e-25)
(0.009937405 6.619928e-05 1.020926e-24)
(0.009870808 4.049597e-05 1.941989e-24)
(0.009865104 4.252893e-06 6.502613e-24)
(0.009840864 1.923648e-05 4.506175e-24)
(0.009922823 5.586132e-05 -1.118117e-24)
(0.009822848 7.48906e-05 -1.961399e-24)
(0.009884329 3.391557e-05 0)
(0.009980722 -3.524183e-05 -3.809876e-25)
(0.009920151 -0.0001078144 -1.552184e-24)
(0.01010437 -0.0003033856 0)
(0.01008515 -0.0002291862 0)
(0.009969955 -4.387341e-05 2.606104e-25)
(0.009997498 -4.080638e-05 0)
(0.009993252 -3.985376e-05 -2.196351e-25)
(0.009980885 -3.799482e-05 -3.68564e-26)
(0.00998014 -5.867533e-05 -7.353239e-25)
(0.00999081 -4.226041e-05 -2.579518e-25)
(0.009999334 -5.182918e-05 -1.079261e-25)
(0.009880404 -1.919398e-05 -2.868226e-24)
(0.010056 -6.005207e-05 -1.455392e-24)
(0.009931942 -3.569143e-05 -1.659011e-24)
(0.009884647 -0.000138928 -1.010003e-24)
(0.009962074 -3.978487e-05 7.287783e-25)
(0.01006984 -0.0001997461 0)
(0.0101399 -0.0001868983 0)
(0.01012398 -0.000197892 -2.889202e-24)
(0.009946321 9.226933e-06 0)
(0.01003158 -7.394332e-05 0)
(0.009934316 9.615912e-05 0)
(0.009944527 8.015439e-06 0)
(0.009947737 2.481615e-06 0)
(0.009998023 -4.405814e-05 2.609881e-26)
(0.009995395 -0.0001238738 5.806618e-25)
(0.009890869 -2.178951e-05 0)
(0.01006808 -0.0001028657 0)
(0.01002907 -4.22589e-05 -3.174017e-25)
(0.009956128 -8.796154e-05 -1.502838e-24)
(0.009989855 -9.083083e-05 5.018558e-25)
(0.009982497 -7.807421e-05 -2.082588e-25)
(0.009973684 -8.476635e-05 -1.045633e-24)
(0.009991396 -6.032765e-05 -2.720725e-25)
(0.009833107 9.036835e-05 1.121193e-24)
(0.01004163 -5.233826e-05 0)
(0.01002575 -5.62353e-05 4.861749e-26)
(0.01002686 -6.010438e-05 -4.269737e-25)
(0.01015318 -0.0001405555 0)
(0.00977902 -0.0003797347 1.138871e-25)
(0.009986774 -5.27245e-05 8.189861e-26)
(0.0102128 -0.0001652368 -1.969665e-24)
(0.009989554 -6.138219e-05 -2.180732e-25)
(0.00990044 0.000121471 1.304014e-24)
(0.01001232 -5.147969e-05 1.380516e-25)
(0.009932734 -6.798477e-05 -7.293226e-25)
(0.009869747 8.122481e-05 0)
(0.009960686 -0.0001066782 -5.476489e-25)
(0.0101572 -0.0001455121 0)
(0.009890568 2.726809e-05 6.936645e-26)
(0.009932805 4.381899e-05 0)
(0.009918367 -6.774679e-05 0)
(0.009896461 -2.688423e-05 1.611698e-24)
(0.01001016 -0.0001301763 1.307506e-25)
(0.009993599 -0.0001543132 0)
(0.009794963 0.0002507379 5.374464e-24)
(0.009889315 0.0002125835 -2.895013e-24)
(0.01012867 -0.0001403705 -2.469501e-24)
(0.009946055 -0.000185198 0)
(0.01007617 -0.0001194477 1.613398e-25)
(0.009950386 -3.290154e-05 -1.605836e-24)
(0.009908103 -0.0001367028 5.832714e-25)
(0.009789348 -0.0002542868 1.361617e-25)
(0.009800947 3.056441e-05 7.438063e-24)
(0.009951492 -1.528438e-05 1.618621e-24)
(0.009944844 -2.231429e-06 -6.547321e-25)
(0.009857231 0.0002049284 0)
(0.009859446 2.300272e-05 -3.611397e-24)
(0.009887756 0.0003406701 -4.786281e-24)
(0.01003091 -0.0001296958 0)
(0.01005947 -6.451421e-05 -2.135098e-24)
(0.01005454 -9.138176e-05 2.424851e-25)
(0.009960086 -0.0001752483 1.129503e-25)
(0.009903592 -6.316081e-05 -1.865238e-25)
(0.009892201 3.134545e-05 -2.29604e-24)
(0.009896269 4.680333e-05 -2.371165e-25)
(0.009932669 0.0002898769 5.696871e-24)
(0.0100126 -5.969796e-05 -8.32849e-26)
(0.01001615 -3.682793e-05 0)
(0.009925825 0.0001271364 0)
(0.009921196 -0.0002160157 0)
(0.009935378 -0.0001158121 0)
(0.009993853 -0.0001034067 3.122519e-25)
(0.009947576 -2.770439e-05 -1.071619e-24)
(0.009889608 9.925798e-05 -4.558152e-25)
(0.01000579 -0.0001088177 0)
(0.01003579 -0.0002831155 -7.480493e-25)
(0.009902075 1.708599e-05 -2.083153e-24)
(0.01014981 -0.0001962092 4.516942e-24)
(0.01016181 -0.0001661419 0)
(0.009999348 -0.0002412937 -8.673705e-25)
(0.0100181 -0.0001682851 -2.679664e-25)
(0.01015031 -3.962044e-05 3.897179e-24)
(0.009881295 -0.0001168481 2.500942e-24)
(0.009929373 -9.500407e-06 -9.65014e-25)
(0.009894102 -0.000102518 -3.102689e-24)
(0.00989889 3.774186e-06 2.088441e-24)
(0.01014257 -0.0001482408 -3.567994e-24)
(0.01011676 -0.0001081936 0)
(0.009992089 -3.202542e-05 0)
(0.009904615 1.629651e-07 -1.153668e-24)
(0.01008218 -0.0001461804 0)
(0.01007031 -0.0001686683 5.478435e-25)
(0.01006603 -0.0001367497 1.764027e-24)
(0.01006369 -0.0001273409 -4.592889e-25)
(0.01005571 -7.25166e-05 0)
(0.009977961 -0.0001161714 -8.164909e-25)
(0.01008585 -0.0001388582 0)
(0.009933718 0.0001071931 -1.919072e-25)
(0.009752994 -0.0001636073 3.084738e-24)
(0.009964528 -0.0001159944 1.878986e-24)
(0.009971058 -0.0001204623 0)
(0.009973952 -6.690442e-05 -7.522192e-25)
(0.01003552 -0.0001580197 1.238848e-25)
(0.01012909 -6.061704e-05 -2.348192e-24)
(0.0100468 -3.395189e-05 1.692282e-25)
(0.01002627 -7.575481e-05 0)
(0.009720796 -2.295211e-05 5.830452e-24)
(0.01000258 -0.0001027524 -1.839678e-25)
(0.01001 -0.0001187627 0)
(0.009833573 -0.0001272953 0)
(0.009810899 -0.0001142155 2.550953e-24)
(0.01009486 -0.0001811689 5.083494e-25)
(0.009949475 -0.0002686793 4.963947e-25)
(0.009987247 -3.402508e-05 -2.9967e-25)
(0.01007847 -8.776053e-05 0)
(0.009944739 -2.085006e-05 2.393038e-24)
(0.01005602 -0.0003627893 0)
(0.009934961 -4.477997e-05 1.077239e-24)
(0.009862474 0.000121 0)
(0.009796343 -0.0001684381 8.39741e-24)
(0.00985256 -0.0002865816 -1.128352e-25)
(0.00994529 2.575231e-05 -3.43073e-25)
(0.009964632 -4.399243e-05 7.426792e-26)
(0.01007115 -9.707483e-05 1.128741e-24)
(0.01004862 -4.352267e-05 1.127032e-24)
(0.009957387 -5.341615e-05 -1.430127e-24)
(0.009917564 7.32152e-05 -1.881934e-24)
(0.00997163 -7.171257e-05 0)
(0.009964182 -5.481937e-05 2.086957e-25)
(0.009994784 -3.448269e-05 0)
(0.01016257 -0.0001572862 -1.045088e-24)
(0.010202 -0.0001203209 5.180363e-24)
(0.009945807 -0.000138944 0)
(0.009997363 -4.966497e-05 3.291243e-25)
(0.00989813 9.415958e-05 7.252494e-26)
(0.009833965 -5.385302e-06 -3.079884e-24)
(0.0100181 -9.353826e-05 0)
(0.009995892 -0.0001643175 -4.666153e-25)
(0.01003946 -4.705735e-05 6.638123e-25)
(0.009826768 -9.291296e-05 1.297788e-24)
(0.01001792 -0.0002557199 -1.295421e-24)
(0.009888106 0.0003075825 -2.621769e-24)
(0.00995009 -5.540167e-05 0)
(0.009940948 -0.000115737 0)
(0.01002382 -6.508367e-05 0)
(0.00978364 0.0001255959 0)
(0.009969505 -3.358528e-05 -2.962339e-25)
(0.009551708 -4.781013e-05 -1.88296e-24)
(0.009958664 -4.952244e-05 -9.409621e-25)
(0.009916618 0.0001107556 -8.757305e-25)
(0.009771935 -5.590465e-05 -8.756918e-24)
(0.009948679 -3.046178e-05 0)
(0.01003345 -0.0002951864 5.710964e-25)
(0.009852836 -2.07851e-05 2.453731e-24)
(0.009896662 -7.360316e-05 1.996413e-24)
(0.009929624 7.561804e-06 3.618127e-25)
(0.00964089 0.0001669986 -1.476627e-25)
(0.00991595 -2.095295e-06 -6.633054e-25)
(0.009911943 -6.774194e-06 -7.412011e-25)
(0.01019121 -0.0001727145 5.183675e-25)
(0.00994242 6.4481e-05 -7.179727e-25)
(0.01000636 -3.72296e-05 0)
(0.009962537 -0.0002387771 0)
(0.009931175 8.811887e-05 -1.905143e-24)
(0.009942881 3.164885e-06 -1.419055e-24)
(0.01010661 -0.000130295 -9.642655e-25)
(0.00988261 0.0001199841 -2.847533e-25)
(0.009936898 -3.635456e-06 -1.003581e-24)
(0.009959643 -5.454259e-05 -6.951846e-25)
(0.00994089 1.552357e-05 0)
(0.009920461 -9.997288e-06 -1.12674e-24)
(0.009910065 -1.367611e-05 9.234815e-25)
(0.01012944 -0.0001635836 0)
(0.01011644 -0.0001752351 -2.268375e-25)
(0.01008636 -0.0001026227 -6.922131e-25)
(0.009968931 -0.0001475589 -6.192191e-25)
(0.009964263 -0.0001339081 1.445597e-24)
(0.009913981 0.0002843367 -2.9958e-24)
(0.009872561 3.160657e-05 3.968226e-24)
(0.009931888 0.0001162168 0)
(0.009860746 0.0001355703 -3.137974e-25)
(0.009869507 0.0001214898 -2.481812e-24)
(0.00996806 -5.481283e-05 -1.292234e-25)
(0.01013153 -0.0001777986 0)
(0.009977517 -5.816063e-05 -4.635928e-25)
(0.009798417 0.0001560239 -5.506082e-24)
(0.009769668 -0.000148712 5.185303e-24)
(0.00996652 -3.217878e-05 -7.174955e-25)
(0.009968078 -3.999301e-05 1.901566e-26)
(0.009963088 -6.090904e-05 1.192291e-24)
(0.009600582 -0.0001457536 0)
(0.009951814 -6.8752e-06 0)
(0.0100309 -6.782787e-05 0)
(0.01015999 -0.0001280235 -1.540281e-24)
(0.009914253 0.0001009159 8.420135e-25)
(0.009920089 -5.456524e-05 1.387866e-24)
(0.009927206 7.675571e-06 -3.421002e-25)
(0.009801932 0.0003636127 0)
(0.009857837 0.0003498407 1.809328e-25)
(0.009918388 0.0001736664 -2.795826e-25)
(0.009924279 0.0002077372 -3.140559e-24)
(0.009953717 -6.965293e-05 2.335773e-25)
(0.009931405 7.88661e-05 0)
(0.009913659 -0.0002752613 3.142297e-24)
(0.009945699 -8.28478e-05 1.047602e-24)
(0.009927312 -9.387977e-05 2.045612e-24)
(0.009910052 -8.508619e-05 -4.383609e-26)
(0.009930045 -7.378141e-05 2.286134e-24)
(0.009778774 1.554411e-05 -4.054443e-24)
(0.009941842 -0.0001011266 1.607635e-24)
(0.009905791 -9.674277e-05 0)
(0.009980336 -9.07458e-05 -1.12921e-24)
(0.009984448 -5.086955e-05 0)
(0.009849139 7.184448e-05 0)
(0.01020248 -0.000159034 5.454459e-25)
(0.01008985 -0.0001051758 1.418148e-24)
(0.01018547 -0.0001071589 0)
(0.009936754 -7.285274e-05 2.11139e-24)
(0.00993308 -7.148207e-05 0)
(0.01012551 -0.0002789935 -3.933974e-25)
(0.009937453 -7.646982e-05 -2.449769e-24)
(0.009986172 -0.0001616328 0)
(0.009872005 -7.449416e-05 2.530339e-24)
(0.009917314 -8.99872e-05 2.220132e-24)
(0.009913996 -7.966099e-05 -2.597115e-24)
(0.009721684 0.0001510241 2.349487e-24)
(0.0100155 -0.0001894469 0)
(0.009827119 -0.0002973973 -3.926346e-24)
(0.01002164 -0.0001164372 1.668648e-25)
(0.009747672 -0.0001766037 -8.224473e-24)
(0.00973921 -0.0001311688 2.292756e-24)
(0.009772748 -0.0001884938 0)
(0.009923524 -0.0003485676 -2.593461e-24)
(0.009941024 -0.0001077369 1.650417e-24)
(0.009942989 1.643256e-05 0)
(0.009942095 2.090289e-05 0)
(0.009939516 -4.92768e-05 5.208082e-25)
(0.009574719 4.989569e-06 -3.39127e-24)
(0.00992896 1.942852e-05 1.01634e-24)
(0.009915246 -6.367546e-05 8.99998e-25)
(0.009754715 0.0001191941 2.315866e-24)
(0.009928773 0.0001125706 0)
(0.009837955 0.0002298729 -2.15162e-25)
(0.009865257 -7.561067e-05 2.275806e-24)
(0.009945047 -8.771212e-06 0)
(0.009607814 -0.000292622 -1.607836e-24)
(0.009712294 -0.0002272568 -5.726071e-24)
(0.009683927 -0.0002704658 0)
(0.009852252 0.0001673329 3.750751e-27)
(0.009808702 0.0001542259 3.105699e-24)
(0.01013924 -0.0001798256 1.844421e-24)
(0.00966024 0.0001271342 -4.096241e-24)
(0.01003081 -0.000146229 0)
(0.009793597 -0.0001220687 -3.737547e-24)
(0.009829729 0.0002111459 -3.052425e-24)
(0.009934196 -3.238048e-05 1.04882e-24)
(0.00979007 7.699233e-05 0)
(0.01002783 -0.0003309338 1.702089e-24)
(0.01008043 -0.0002762893 -2.9638e-25)
(0.00985934 -0.0001706523 -8.78806e-25)
(0.009711418 -6.591501e-05 -3.2601e-24)
(0.01003097 -0.0002316573 1.756579e-26)
(0.009911235 -3.329722e-05 -6.029953e-26)
(0.009955211 -3.234708e-05 1.056842e-24)
(0.01004946 -7.75325e-05 -6.065372e-27)
(0.009963455 -3.69787e-05 -1.012575e-24)
(0.00985007 -6.532198e-05 0)